DF-ISE text

Info {
  version   = 1.0
  type      = xyplot
  datasets  = [
    "time"
    "source OuterVoltage" "source InnerVoltage" "source QuasiFermiPotential" "source DisplacementCurrent" "source eCurrent"
    "source hCurrent" "source TotalCurrent" "source Charge" "gate OuterVoltage" "gate InnerVoltage"
    "gate QuasiFermiPotential" "gate DisplacementCurrent" "gate eCurrent" "gate hCurrent" "gate TotalCurrent"
    "gate Charge" "substrate OuterVoltage" "substrate InnerVoltage" "substrate QuasiFermiPotential" "substrate DisplacementCurrent"
    "substrate eCurrent" "substrate hCurrent" "substrate TotalCurrent" "substrate Charge" "drain OuterVoltage"
    "drain InnerVoltage" "drain QuasiFermiPotential" "drain DisplacementCurrent" "drain eCurrent" "drain hCurrent"
    "drain TotalCurrent" "drain Charge" ]
  functions = [
    Time
    OuterVoltage InnerVoltage QuasiFermiPotential DisplacementCurrent eCurrent
    hCurrent TotalCurrent Charge OuterVoltage InnerVoltage
    QuasiFermiPotential DisplacementCurrent eCurrent hCurrent TotalCurrent
    Charge OuterVoltage InnerVoltage QuasiFermiPotential DisplacementCurrent
    eCurrent hCurrent TotalCurrent Charge OuterVoltage
    InnerVoltage QuasiFermiPotential DisplacementCurrent eCurrent hCurrent
    TotalCurrent Charge ]
}

Data {
      0.00000000000000E+00
      0.00000000000000E+00   0.00000000000000E+00   0.00000000000000E+00   0.00000000000000E+00  -2.26904809643464E-22
      1.07318917470905E-33  -2.26904809642391E-22   4.71251306422105E-18   0.00000000000000E+00   0.00000000000000E+00
      0.00000000000000E+00   0.00000000000000E+00   0.00000000000000E+00   0.00000000000000E+00   0.00000000000000E+00
      1.91249754175507E-17   0.00000000000000E+00   0.00000000000000E+00   0.00000000000000E+00   0.00000000000000E+00
      1.78331528073425E-23  -1.72625876734527E-33   1.78331528056163E-23  -2.79212813264085E-17   0.00000000000000E+00
      0.00000000000000E+00   0.00000000000000E+00   0.00000000000000E+00   2.09071656836122E-22   6.53069592636216E-34
      2.09071656836775E-22   4.08379284463688E-18
      0.00000000000000E+00
      0.00000000000000E+00   0.00000000000000E+00   0.00000000000000E+00   0.00000000000000E+00  -3.18112014410911E-20
      1.03990147096079E-33  -3.18112014410901E-20   4.71248270790674E-18   0.00000000000000E+00   0.00000000000000E+00
      0.00000000000000E+00   0.00000000000000E+00   0.00000000000000E+00   0.00000000000000E+00   0.00000000000000E+00
      1.91246569439480E-17   0.00000000000000E+00   0.00000000000000E+00   0.00000000000000E+00   0.00000000000000E+00
      2.18638571569158E-20  -1.65773561222561E-33   2.18638571569141E-20  -2.79209091989468E-17   0.00000000000000E+00
      0.00000000000000E+00   0.00000000000000E+00   0.00000000000000E+00   9.94734428417530E-21   6.17834141264817E-34
      9.94734428417592E-21   4.08376954709207E-18
      1.00000000000000E-03
      0.00000000000000E+00   1.69885740286246E-12   0.00000000000000E+00   0.00000000000000E+00  -6.89096451712848E-12
      1.01850859297208E-33  -6.89096451712848E-12   4.71248097197445E-18   0.00000000000000E+00   0.00000000000000E+00
      0.00000000000000E+00   0.00000000000000E+00   0.00000000000000E+00   0.00000000000000E+00   0.00000000000000E+00
      1.91195030789014E-17   0.00000000000000E+00   0.00000000000000E+00   0.00000000000000E+00   0.00000000000000E+00
     -6.18650100894700E-21  -1.69370091016357E-33  -6.18650100894869E-21  -2.79207094432371E-17   4.30000000000000E-04
      4.29999998215732E-04   0.00000000000000E+00   0.00000000000000E+00   6.89096452331498E-12   6.75192317191486E-34
      6.89096452331498E-12   4.08872539236114E-18
      2.08666666666667E-03
      0.00000000000000E+00   3.50705949786038E-12   0.00000000000000E+00   0.00000000000000E+00  -1.42254303029658E-11
      1.06653149442807E-33  -1.42254303029658E-11   4.71247908608525E-18   0.00000000000000E+00   0.00000000000000E+00
      0.00000000000000E+00   0.00000000000000E+00   0.00000000000000E+00   0.00000000000000E+00   0.00000000000000E+00
      1.91139033336280E-17   0.00000000000000E+00   0.00000000000000E+00   0.00000000000000E+00   0.00000000000000E+00
      4.06378419798168E-17  -1.69626616840964E-33   4.06378419798168E-17  -2.79204941502019E-17   8.97266666666667E-04
      8.97266662983293E-04   0.00000000000000E+00   0.00000000000000E+00   1.42253896651238E-11   6.29734673981575E-34
      1.42253896651238E-11   4.09411173048864E-18
      3.28200000000000E-03
      0.00000000000000E+00   5.45069460597305E-12   0.00000000000000E+00   0.00000000000000E+00  -2.21091256404550E-11
      1.10095564389445E-33  -2.21091256404550E-11   4.71247701219202E-18   0.00000000000000E+00   0.00000000000000E+00
      0.00000000000000E+00   0.00000000000000E+00   0.00000000000000E+00   0.00000000000000E+00   0.00000000000000E+00
      1.91077445530003E-17   0.00000000000000E+00   0.00000000000000E+00   0.00000000000000E+00   0.00000000000000E+00
      5.69625859534492E-17  -1.71049905627214E-33   5.69625859534492E-17  -2.79202594479990E-17   1.41126000000000E-03
      1.41125999427533E-03   0.00000000000000E+00   0.00000000000000E+00   2.21090686778691E-11   6.09543412377687E-34
      2.21090686778691E-11   4.10003788280672E-18
      4.59686666666667E-03
      0.00000000000000E+00   7.53445034128795E-12   0.00000000000000E+00   0.00000000000000E+00  -3.05610870898556E-11
      1.13430356175010E-33  -3.05610870898556E-11   4.71247473160754E-18   0.00000000000000E+00   0.00000000000000E+00
      0.00000000000000E+00   0.00000000000000E+00   0.00000000000000E+00   0.00000000000000E+00   0.00000000000000E+00
      1.91009710191278E-17   0.00000000000000E+00   0.00000000000000E+00   0.00000000000000E+00   0.00000000000000E+00
      8.14745155867269E-17  -1.77108352685610E-33   8.14745155867269E-17  -2.79200038213450E-17   1.97665266666667E-03
      1.97665265875356E-03   0.00000000000000E+00   0.00000000000000E+00   3.05610056153400E-11   6.36779965105992E-34
      3.05610056153400E-11   4.10655807060966E-18
      6.04322000000000E-03
      0.00000000000000E+00   9.76210558486769E-12   0.00000000000000E+00   0.00000000000000E+00  -3.95965383184359E-11
      1.04685847124291E-33  -3.95965383184359E-11   4.71247222379518E-18   0.00000000000000E+00   0.00000000000000E+00
      0.00000000000000E+00   0.00000000000000E+00   0.00000000000000E+00   0.00000000000000E+00   0.00000000000000E+00
      1.90935214777063E-17   0.00000000000000E+00   0.00000000000000E+00   0.00000000000000E+00   0.00000000000000E+00
      1.16607986982078E-16  -1.62261023194671E-33   1.16607986982078E-16  -2.79197256866152E-17   2.59858460000000E-03
      2.59858458974739E-03   0.00000000000000E+00   0.00000000000000E+00   3.95964217104489E-11   5.75751760703799E-34
      3.95964217104489E-11   4.11373198511380E-18
      7.63420866666667E-03
      0.00000000000000E+00   1.21361374952495E-11   0.00000000000000E+00   0.00000000000000E+00  -4.92256079523438E-11
      1.05939713524185E-33  -4.92256079523438E-11   4.71246946618707E-18   0.00000000000000E+00   0.00000000000000E+00
      0.00000000000000E+00   0.00000000000000E+00   0.00000000000000E+00   0.00000000000000E+00   0.00000000000000E+00
      1.90853285907021E-17   0.00000000000000E+00   0.00000000000000E+00   0.00000000000000E+00   0.00000000000000E+00
      1.67201045826115E-16  -1.63336224315701E-33   1.67201045826115E-16  -2.79194234005522E-17   3.28270972666667E-03
      3.28270971392086E-03   0.00000000000000E+00   0.00000000000000E+00   4.92254407512980E-11   5.73965107915156E-34
      4.92254407512980E-11   4.12162534366304E-18
      9.38429620000000E-03
      0.00000000000000E+00   1.46574804160098E-11   0.00000000000000E+00   0.00000000000000E+00  -5.94519431774893E-11
      1.10230764503738E-33  -5.94519431774893E-11   4.71246643398410E-18   0.00000000000000E+00   0.00000000000000E+00
      0.00000000000000E+00   0.00000000000000E+00   0.00000000000000E+00   0.00000000000000E+00   0.00000000000000E+00
      1.90763183353039E-17   0.00000000000000E+00   0.00000000000000E+00   0.00000000000000E+00   0.00000000000000E+00
      2.39162283204630E-16  -1.67746357277950E-33   2.39162283204630E-16  -2.79190952725169E-17   4.03524736600000E-03
      4.03524735060637E-03   0.00000000000000E+00   0.00000000000000E+00   5.94517040152061E-11   5.75155927742118E-34
      5.94517040152061E-11   4.13031050322886E-18
      1.13093924866667E-02
      0.00000000000000E+00   1.73250675352013E-11   0.00000000000000E+00   0.00000000000000E+00  -7.02711969082689E-11
      1.10211524588418E-33  -7.02711969082689E-11   4.71246309993623E-18   0.00000000000000E+00   0.00000000000000E+00
      0.00000000000000E+00   0.00000000000000E+00   0.00000000000000E+00   0.00000000000000E+00   0.00000000000000E+00
      1.90664093438898E-17   0.00000000000000E+00   0.00000000000000E+00   0.00000000000000E+00   0.00000000000000E+00
      3.39453485402205E-16  -1.66333878061752E-33   3.39453485402205E-16  -2.79187395810349E-17   4.86303876926667E-03
      4.86303875107168E-03   0.00000000000000E+00   0.00000000000000E+00   7.02708574547836E-11   5.61223534733334E-34
      7.02708574547836E-11   4.13986713720891E-18
      1.34269984020000E-02
      0.00000000000000E+00   2.01354520258110E-11   0.00000000000000E+00   0.00000000000000E+00  -8.16693857730117E-11
      1.02910237004192E-33  -8.16693857730117E-11   4.71245943410076E-18   0.00000000000000E+00   0.00000000000000E+00
      0.00000000000000E+00   0.00000000000000E+00   0.00000000000000E+00   0.00000000000000E+00   0.00000000000000E+00
      1.90555121792296E-17   0.00000000000000E+00   0.00000000000000E+00   0.00000000000000E+00   0.00000000000000E+00
      4.86044068677804E-16  -1.59950323060142E-33   4.86044068677804E-16  -2.79183545954892E-17   5.77360931286000E-03
      5.77360929171377E-03   0.00000000000000E+00   0.00000000000000E+00   8.16688997289430E-11   5.70400860559504E-34
      8.16688997289430E-11   4.15038298215886E-18
      1.57563649088667E-02
      0.00000000000000E+00   2.30824228874855E-11   0.00000000000000E+00   0.00000000000000E+00  -9.36211433564083E-11
      1.03936454469391E-33  -9.36211433564083E-11   4.71245540357648E-18   0.00000000000000E+00   0.00000000000000E+00
      0.00000000000000E+00   0.00000000000000E+00   0.00000000000000E+00   0.00000000000000E+00   0.00000000000000E+00
      1.90435285385597E-17   0.00000000000000E+00   0.00000000000000E+00   0.00000000000000E+00   0.00000000000000E+00
      2.10826246943360E-20  -1.53856693388035E-33   2.10826246943344E-20  -2.79179386039266E-17   6.77523691081267E-03
      6.77523688657187E-03   0.00000000000000E+00   0.00000000000000E+00   9.36211433353257E-11   4.99202389186445E-34
      9.36211433353257E-11   4.16195466179046E-18
      1.83031389563742E-02
      0.00000000000000E+00   2.61383754779590E-11   0.00000000000000E+00   0.00000000000000E+00  -1.06014566918307E-10
      1.05464724665521E-33  -1.06014566918307E-10   4.71245099906090E-18   0.00000000000000E+00   0.00000000000000E+00
      0.00000000000000E+00   0.00000000000000E+00   0.00000000000000E+00   0.00000000000000E+00   0.00000000000000E+00
      1.90304302351801E-17   0.00000000000000E+00   0.00000000000000E+00   0.00000000000000E+00   0.00000000000000E+00
     -3.14950210180151E-20  -1.56242426371210E-33  -3.14950210180167E-20  -2.79174926392820E-17   7.87034975124092E-03
      7.87034972379120E-03   0.00000000000000E+00   0.00000000000000E+00   1.06014566949802E-10   5.07777017056895E-34
      1.06014566949802E-10   4.17461140504101E-18
      2.10876119149825E-02
      0.00000000000000E+00   2.92901415580343E-11   0.00000000000000E+00   0.00000000000000E+00  -1.18796130860340E-10
      1.09628838553178E-33  -1.18796130860340E-10   4.71244618597267E-18   0.00000000000000E+00   0.00000000000000E+00
      0.00000000000000E+00   0.00000000000000E+00   0.00000000000000E+00   0.00000000000000E+00   0.00000000000000E+00
      1.90161138834001E-17   0.00000000000000E+00   0.00000000000000E+00   0.00000000000000E+00   0.00000000000000E+00
      2.66005948205568E-20  -1.58723030852520E-33   2.66005948205552E-20  -2.79170154672992E-17   9.06767312344248E-03
      9.06767309268335E-03   0.00000000000000E+00   0.00000000000000E+00   1.18796130833739E-10   4.90941922993428E-34
      1.18796130833739E-10   4.18845539792654E-18
      2.41319690163942E-02
      0.00000000000000E+00   3.25211281395635E-11   0.00000000000000E+00   0.00000000000000E+00  -1.31898581200296E-10
      1.06888602678192E-33  -1.31898581200296E-10   4.71244092653747E-18   0.00000000000000E+00   0.00000000000000E+00
      0.00000000000000E+00   0.00000000000000E+00   0.00000000000000E+00   0.00000000000000E+00   0.00000000000000E+00
      1.90004665493087E-17   0.00000000000000E+00   0.00000000000000E+00   0.00000000000000E+00   0.00000000000000E+00
     -9.09714260074228E-21  -1.54368537442341E-33  -9.09714260074382E-21  -2.79165059974671E-17   1.03767466770495E-02
      1.03767466428979E-02   0.00000000000000E+00   0.00000000000000E+00   1.31898581209393E-10   4.74799347641492E-34
      1.31898581209393E-10   4.20359852162092E-18
      2.74604661139377E-02
      0.00000000000000E+00   3.58111982639137E-11   0.00000000000000E+00   0.00000000000000E+00  -1.45240082657743E-10
      1.02000797349348E-33  -1.45240082657743E-10   4.71243517948959E-18   0.00000000000000E+00   0.00000000000000E+00
      0.00000000000000E+00   0.00000000000000E+00   0.00000000000000E+00   0.00000000000000E+00   0.00000000000000E+00
      1.89833648727154E-17   0.00000000000000E+00   0.00000000000000E+00   0.00000000000000E+00   0.00000000000000E+00
      1.86253256146721E-20  -1.46360465612806E-33   1.86253256146707E-20  -2.79159633345328E-17   1.18080004289932E-02
      1.18080003913872E-02   0.00000000000000E+00   0.00000000000000E+00   1.45240082639118E-10   4.43596682634579E-34
      1.45240082639118E-10   4.22016328232785E-18
      3.10996229405852E-02
      0.00000000000000E+00   3.91364758319011E-11   0.00000000000000E+00   0.00000000000000E+00  -1.58723756546680E-10
      1.08558781603602E-33  -1.58723756546680E-10   4.71242889974380E-18   0.00000000000000E+00   0.00000000000000E+00
      0.00000000000000E+00   0.00000000000000E+00   0.00000000000000E+00   0.00000000000000E+00   0.00000000000000E+00
      1.89646741081202E-17   0.00000000000000E+00   0.00000000000000E+00   0.00000000000000E+00   0.00000000000000E+00
      9.41205536500076E-21  -1.51992700242345E-33   9.41205536499924E-21  -2.79153868390959E-17   1.33728378644516E-02
      1.33728378233544E-02   0.00000000000000E+00   0.00000000000000E+00   1.58723756537268E-10   4.34339186387436E-34
      1.58723756537268E-10   4.23828383123184E-18
      3.50784344043865E-02
      0.00000000000000E+00   4.24693694480968E-11   0.00000000000000E+00   0.00000000000000E+00  -1.72237732388173E-10
      1.03754097872008E-33  -1.72237732388173E-10   4.71242203803452E-18   0.00000000000000E+00   0.00000000000000E+00
      0.00000000000000E+00   0.00000000000000E+00   0.00000000000000E+00   0.00000000000000E+00   0.00000000000000E+00
      1.89442470769969E-17   0.00000000000000E+00   0.00000000000000E+00   0.00000000000000E+00   0.00000000000000E+00
      2.14553333557244E-20  -1.41655813788930E-33   2.14553333557230E-20  -2.79147761981864E-17   1.50837267938862E-02
      1.50837267492899E-02   0.00000000000000E+00   0.00000000000000E+00   1.72237732366717E-10   3.79017159169223E-34
      1.72237732366717E-10   4.25810708315509E-18
      3.94286016048092E-02
      0.00000000000000E+00   4.57787940845687E-11   0.00000000000000E+00   0.00000000000000E+00  -1.85655859667858E-10
      1.02020087313033E-33  -1.85655859667858E-10   4.71241454051834E-18   0.00000000000000E+00   0.00000000000000E+00
      0.00000000000000E+00   0.00000000000000E+00   0.00000000000000E+00   0.00000000000000E+00   0.00000000000000E+00
      1.89219230229591E-17   0.00000000000000E+00   0.00000000000000E+00   0.00000000000000E+00   0.00000000000000E+00
      4.48780043590081E-21  -1.38861448343267E-33   4.48780043589942E-21  -2.79141315068232E-17   1.69542986900680E-02
      1.69542986419974E-02   0.00000000000000E+00   0.00000000000000E+00   1.85655859663370E-10   3.68413610302336E-34
      1.85655859663370E-10   4.27979394334589E-18
      4.41847844106047E-02
      0.00000000000000E+00   4.90304801737460E-11   0.00000000000000E+00   0.00000000000000E+00  -1.98839248154702E-10
      1.08682496401689E-33  -1.98839248154702E-10   4.71240634833581E-18   0.00000000000000E+00   0.00000000000000E+00
      0.00000000000000E+00   0.00000000000000E+00   0.00000000000000E+00   0.00000000000000E+00   0.00000000000000E+00
      1.88975263603910E-17   0.00000000000000E+00   0.00000000000000E+00   0.00000000000000E+00   0.00000000000000E+00
     -1.53268992391788E-20  -1.41659090762439E-33  -1.53268992391802E-20  -2.79134533613014E-17   1.89994572965600E-02
      1.89994572450760E-02   0.00000000000000E+00   0.00000000000000E+00   1.98839248170029E-10   3.29765943607498E-34
      1.98839248170029E-10   4.30352065257460E-18
      4.93848776116079E-02
      0.00000000000000E+00   5.21876580283367E-11   0.00000000000000E+00   0.00000000000000E+00  -2.11638792691070E-10
      1.04000469555934E-33  -2.11638792691070E-10   4.71239739712798E-18   0.00000000000000E+00   0.00000000000000E+00
      0.00000000000000E+00   0.00000000000000E+00   0.00000000000000E+00   0.00000000000000E+00   0.00000000000000E+00
      1.88708653062200E-17   0.00000000000000E+00   0.00000000000000E+00   0.00000000000000E+00   0.00000000000000E+00
     -2.32209662306834E-20  -1.35613760534316E-33  -2.32209662306847E-20  -2.79127429649215E-17   2.12354973729914E-02
      2.12354973181934E-02   0.00000000000000E+00   0.00000000000000E+00   2.11638792714291E-10   3.16132909783816E-34
      2.11638792714291E-10   4.32948026157355E-18
      5.50703128447046E-02
      0.00000000000000E+00   5.52119409638006E-11   0.00000000000000E+00   0.00000000000000E+00  -2.23898831849507E-10
      1.07156052806002E-33  -2.23898831849507E-10   4.71238761650248E-18   0.00000000000000E+00   0.00000000000000E+00
      0.00000000000000E+00   0.00000000000000E+00   0.00000000000000E+00   0.00000000000000E+00   0.00000000000000E+00
      1.88417303833577E-17   0.00000000000000E+00   0.00000000000000E+00   0.00000000000000E+00   0.00000000000000E+00
     -8.86619521021864E-22  -1.35468265165462E-33  -8.86619521023218E-22  -2.79120022465857E-17   2.36802345232230E-02
      2.36802344652506E-02   0.00000000000000E+00   0.00000000000000E+00   2.23898831850394E-10   2.83122123594606E-34
      2.23898831850394E-10   4.35788424672552E-18
      6.12863886995570E-02
      0.00000000000000E+00   5.80644556951144E-11   0.00000000000000E+00   0.00000000000000E+00  -2.35461991409541E-10
      1.03814907467752E-33  -2.35461991409541E-10   4.71237692944419E-18   0.00000000000000E+00   0.00000000000000E+00
      0.00000000000000E+00   0.00000000000000E+00   0.00000000000000E+00   0.00000000000000E+00   0.00000000000000E+00
      1.88098927833007E-17   0.00000000000000E+00   0.00000000000000E+00   0.00000000000000E+00   0.00000000000000E+00
     -8.27674943698895E-21  -1.29854618090515E-33  -8.27674943699025E-21  -2.79112339925536E-17   2.63531471408095E-02
      2.63531470798433E-02   0.00000000000000E+00   0.00000000000000E+00   2.35461991417818E-10   2.60397106227633E-34
      2.35461991417818E-10   4.38896427980864E-18
      6.80826316341957E-02
      0.00000000000000E+00   6.07075282175737E-11   0.00000000000000E+00   0.00000000000000E+00  -2.46175528521385E-10
      1.04473288062277E-33  -2.46175528521385E-10   4.71236525166362E-18   0.00000000000000E+00   0.00000000000000E+00
      0.00000000000000E+00   0.00000000000000E+00   0.00000000000000E+00   0.00000000000000E+00   0.00000000000000E+00
      1.87751025732908E-17   0.00000000000000E+00   0.00000000000000E+00   0.00000000000000E+00   0.00000000000000E+00
      1.93239126104240E-20  -1.27718356211188E-33   1.93239126104227E-20  -2.79104419904430E-17   2.92755316027042E-02
      2.92755315389642E-02   0.00000000000000E+00   0.00000000000000E+00   2.46175528502061E-10   2.32450681489110E-34
      2.46175528502061E-10   4.42297416548860E-18
      7.55131905760673E-02
      0.00000000000000E+00   6.31063643888588E-11   0.00000000000000E+00   0.00000000000000E+00  -2.55898651973877E-10
      1.05972028700972E-33  -2.55898651973877E-10   4.71235249087903E-18   0.00000000000000E+00   0.00000000000000E+00
      0.00000000000000E+00   0.00000000000000E+00   0.00000000000000E+00   0.00000000000000E+00   0.00000000000000E+00
      1.87370867337695E-17   0.00000000000000E+00   0.00000000000000E+00   0.00000000000000E+00   0.00000000000000E+00
     -3.21456611879678E-20  -1.27803044345425E-33  -3.21456611879691E-20  -2.79096311859649E-17   3.24706719477090E-02
      3.24706718814519E-02   0.00000000000000E+00   0.00000000000000E+00   2.55898652006022E-10   2.18310156444538E-34
      2.55898652006022E-10   4.46019196131635E-18
      8.36372683525136E-02
      0.00000000000000E+00   6.52312524364831E-11   0.00000000000000E+00   0.00000000000000E+00  -2.64511183416512E-10
      1.08368607865808E-33  -2.64511183416512E-10   4.71233854602443E-18   0.00000000000000E+00   0.00000000000000E+00
      0.00000000000000E+00   0.00000000000000E+00   0.00000000000000E+00   0.00000000000000E+00   0.00000000000000E+00
      1.86955470076708E-17   0.00000000000000E+00   0.00000000000000E+00   0.00000000000000E+00   0.00000000000000E+00
     -1.07332240561618E-20  -1.28670668608064E-33  -1.07332240561631E-20  -2.79088078493731E-17   3.59640253915809E-02
      3.59640253230944E-02   0.00000000000000E+00   0.00000000000000E+00   2.64511183427245E-10   2.03020607422563E-34
      2.64511183427245E-10   4.50092229567783E-18
      9.25195933880949E-02
      0.00000000000000E+00   6.70598732061827E-11   0.00000000000000E+00   0.00000000000000E+00  -2.71922977467572E-10
      1.08036064376502E-33  -2.71922977467572E-10   4.71232330637882E-18   0.00000000000000E+00   0.00000000000000E+00
      0.00000000000000E+00   0.00000000000000E+00   0.00000000000000E+00   0.00000000000000E+00   0.00000000000000E+00
      1.86501575437138E-17   0.00000000000000E+00   0.00000000000000E+00   0.00000000000000E+00   0.00000000000000E+00
      2.63978691278847E-20  -1.25207626189398E-33   2.63978691278834E-20  -2.79079797504983E-17   3.97834251568808E-02
      3.97834250864764E-02   0.00000000000000E+00   0.00000000000000E+00   2.71922977441174E-10   1.71715618128958E-34
      2.71922977441174E-10   4.54549890040574E-18
      1.02230935426997E-01
      0.00000000000000E+00   6.85797075537783E-11   0.00000000000000E+00   0.00000000000000E+00  -2.78083574967811E-10
      1.01641530765229E-33  -2.78083574967811E-10   4.71230665061151E-18   0.00000000000000E+00   0.00000000000000E+00
      0.00000000000000E+00   0.00000000000000E+00   0.00000000000000E+00   0.00000000000000E+00   0.00000000000000E+00
      1.86005623127511E-17   0.00000000000000E+00   0.00000000000000E+00   0.00000000000000E+00   0.00000000000000E+00
     -3.26688470048756E-20  -1.16452810770693E-33  -3.26688470048768E-20  -2.79071563388431E-17   4.39593022336087E-02
      4.39593021616110E-02   0.00000000000000E+00   0.00000000000000E+00   2.78083575000480E-10   1.48112800054637E-34
      2.78083575000480E-10   4.59428737548048E-18
      1.12230935426997E-01
      0.00000000000000E+00   6.97306280856854E-11   0.00000000000000E+00   0.00000000000000E+00  -2.82749616420841E-10
      1.07881065055152E-33  -2.82749616420841E-10   4.71228950476861E-18   0.00000000000000E+00   0.00000000000000E+00
      0.00000000000000E+00   0.00000000000000E+00   0.00000000000000E+00   0.00000000000000E+00   0.00000000000000E+00
      1.85495240912249E-17   0.00000000000000E+00   0.00000000000000E+00   0.00000000000000E+00   0.00000000000000E+00
     -6.50475886209412E-21  -1.20455830504910E-33  -6.50475886209532E-21  -2.79063933372083E-17   4.82593022336087E-02
      4.82593021604053E-02   0.00000000000000E+00   0.00000000000000E+00   2.82749616427346E-10   1.25747654497573E-34
      2.82749616427346E-10   4.64457974121485E-18
      1.22230935426997E-01
      0.00000000000000E+00   7.05565109757375E-11   0.00000000000000E+00   0.00000000000000E+00  -2.86099041632213E-10
      1.09240340192924E-33  -2.86099041632213E-10   4.71227236235777E-18   0.00000000000000E+00   0.00000000000000E+00
      0.00000000000000E+00   0.00000000000000E+00   0.00000000000000E+00   0.00000000000000E+00   0.00000000000000E+00
      1.84985153418673E-17   0.00000000000000E+00   0.00000000000000E+00   0.00000000000000E+00   0.00000000000000E+00
      1.55287356731856E-21  -1.20712617985022E-33   1.55287356731736E-21  -2.79057119110348E-17   5.25593022336087E-02
      5.25593021595415E-02   0.00000000000000E+00   0.00000000000000E+00   2.86099041630660E-10   1.14722777920981E-34
      2.86099041630660E-10   4.69492420680973E-18
      1.32230935426997E-01
      0.00000000000000E+00   7.11355540695646E-11   0.00000000000000E+00   0.00000000000000E+00  -2.88448832509105E-10
      1.13990797928285E-33  -2.88448832509105E-10   4.71225522198657E-18   0.00000000000000E+00   0.00000000000000E+00
      0.00000000000000E+00   0.00000000000000E+00   0.00000000000000E+00   0.00000000000000E+00   0.00000000000000E+00
      1.84475340663375E-17   0.00000000000000E+00   0.00000000000000E+00   0.00000000000000E+00   0.00000000000000E+00
     -3.67915680527985E-20  -1.23732338917441E-33  -3.67915680527997E-20  -2.79051077514658E-17   5.68593022336088E-02
      5.68593021589374E-02   0.00000000000000E+00   0.00000000000000E+00   2.88448832545896E-10   9.74154098915616E-35
      2.88448832545896E-10   4.74531846314176E-18
      1.42230935426997E-01
      0.00000000000000E+00   7.15307416619517E-11   0.00000000000000E+00   0.00000000000000E+00  -2.90054266419711E-10
      1.08308763253919E-33  -2.90054266419711E-10   4.71223808249587E-18   0.00000000000000E+00   0.00000000000000E+00
      0.00000000000000E+00   0.00000000000000E+00   0.00000000000000E+00   0.00000000000000E+00   0.00000000000000E+00
      1.83965784272706E-17   0.00000000000000E+00   0.00000000000000E+00   0.00000000000000E+00   0.00000000000000E+00
     -2.10134835354737E-20  -1.16741837883783E-33  -2.10134835354748E-20  -2.79045768188849E-17   6.11593022336088E-02
      6.11593021585272E-02   0.00000000000000E+00   0.00000000000000E+00   2.90054266440725E-10   8.43307462986340E-35
      2.90054266440725E-10   4.79576030911839E-18
      1.52230935426997E-01
      0.00000000000000E+00   7.17923631621323E-11   0.00000000000000E+00   0.00000000000000E+00  -2.91119129495857E-10
      1.06405803818147E-33  -2.91119129495857E-10   4.71222094292930E-18   0.00000000000000E+00   0.00000000000000E+00
      0.00000000000000E+00   0.00000000000000E+00   0.00000000000000E+00   0.00000000000000E+00   0.00000000000000E+00
      1.83456467347446E-17   0.00000000000000E+00   0.00000000000000E+00   0.00000000000000E+00   0.00000000000000E+00
     -2.09810894714614E-20  -1.13508319018248E-33  -2.09810894714626E-20  -2.79041153238607E-17   6.54593022336088E-02
      6.54593021582578E-02   0.00000000000000E+00   0.00000000000000E+00   2.91119129516838E-10   7.10251520010138E-35
      2.91119129516838E-10   4.84624764618685E-18
      1.62230935426997E-01
      0.00000000000000E+00   7.19603392383826E-11   0.00000000000000E+00   0.00000000000000E+00  -2.91805036355822E-10
      1.07457930147314E-33  -2.91805036355822E-10   4.71220380250303E-18   0.00000000000000E+00   0.00000000000000E+00
      0.00000000000000E+00   0.00000000000000E+00   0.00000000000000E+00   0.00000000000000E+00   0.00000000000000E+00
      1.82947374346060E-17   0.00000000000000E+00   0.00000000000000E+00   0.00000000000000E+00   0.00000000000000E+00
      1.24560682018480E-20  -1.13683074608585E-33   1.24560682018469E-20  -2.79037197104194E-17   6.97593022336088E-02
      6.97593021580875E-02   0.00000000000000E+00   0.00000000000000E+00   2.91805036343366E-10   6.22514446127108E-35
      2.91805036343366E-10   4.89677847331040E-18
      1.72230935426997E-01
      0.00000000000000E+00   7.20665020402473E-11   0.00000000000000E+00   0.00000000000000E+00  -2.92240752788557E-10
      1.09013615619831E-33  -2.92240752788557E-10   4.71218666057302E-18   0.00000000000000E+00   0.00000000000000E+00
      0.00000000000000E+00   0.00000000000000E+00   0.00000000000000E+00   0.00000000000000E+00   0.00000000000000E+00
      1.82438490971195E-17   0.00000000000000E+00   0.00000000000000E+00   0.00000000000000E+00   0.00000000000000E+00
      1.32026907371785E-20  -1.14349531125395E-33   1.32026907371774E-20  -2.79033866398292E-17   7.40593022336088E-02
      7.40593021579823E-02   0.00000000000000E+00   0.00000000000000E+00   2.92240752775355E-10   5.33591550556430E-35
      2.92240752775355E-10   4.94735088213667E-18
      1.82230935426997E-01
      0.00000000000000E+00   7.21356982185084E-11   0.00000000000000E+00   0.00000000000000E+00  -2.92526651688111E-10
      1.05147462746329E-33  -2.92526651688111E-10   4.71216951661833E-18   0.00000000000000E+00   0.00000000000000E+00
      0.00000000000000E+00   0.00000000000000E+00   0.00000000000000E+00   0.00000000000000E+00   0.00000000000000E+00
      1.81929804117832E-17   0.00000000000000E+00   0.00000000000000E+00   0.00000000000000E+00   0.00000000000000E+00
      8.76784475342438E-21  -1.09891300204726E-33   8.76784475342328E-21  -2.79031129808441E-17   7.83593022336088E-02
      7.83593021579157E-02   0.00000000000000E+00   0.00000000000000E+00   2.92526651679343E-10   4.74383745839724E-35
      2.92526651679343E-10   4.99796305244268E-18
      1.92230935426997E-01
      0.00000000000000E+00   7.21868221784790E-11   0.00000000000000E+00   0.00000000000000E+00  -2.92738888734372E-10