DF-ISE text

Info {
  version   = 1.0
  type      = xyplot
  datasets  = [
    "time"
    "source OuterVoltage" "source InnerVoltage" "source QuasiFermiPotential" "source DisplacementCurrent" "source eCurrent"
    "source hCurrent" "source TotalCurrent" "source Charge" "gate OuterVoltage" "gate InnerVoltage"
    "gate QuasiFermiPotential" "gate DisplacementCurrent" "gate eCurrent" "gate hCurrent" "gate TotalCurrent"
    "gate Charge" "substrate OuterVoltage" "substrate InnerVoltage" "substrate QuasiFermiPotential" "substrate DisplacementCurrent"
    "substrate eCurrent" "substrate hCurrent" "substrate TotalCurrent" "substrate Charge" "drain OuterVoltage"
    "drain InnerVoltage" "drain QuasiFermiPotential" "drain DisplacementCurrent" "drain eCurrent" "drain hCurrent"
    "drain TotalCurrent" "drain Charge" ]
  functions = [
    Time
    OuterVoltage InnerVoltage QuasiFermiPotential DisplacementCurrent eCurrent
    hCurrent TotalCurrent Charge OuterVoltage InnerVoltage
    QuasiFermiPotential DisplacementCurrent eCurrent hCurrent TotalCurrent
    Charge OuterVoltage InnerVoltage QuasiFermiPotential DisplacementCurrent
    eCurrent hCurrent TotalCurrent Charge OuterVoltage
    InnerVoltage QuasiFermiPotential DisplacementCurrent eCurrent hCurrent
    TotalCurrent Charge ]
}

Data {
      0.00000000000000E+00
      0.00000000000000E+00   0.00000000000000E+00   0.00000000000000E+00   0.00000000000000E+00   2.73376408025156E-22
      1.13126542216540E-33   2.73376408026288E-22   5.28755993966855E-18   0.00000000000000E+00   0.00000000000000E+00
      0.00000000000000E+00   0.00000000000000E+00   0.00000000000000E+00   0.00000000000000E+00   0.00000000000000E+00
      1.29610969047399E-16   0.00000000000000E+00   0.00000000000000E+00   0.00000000000000E+00   0.00000000000000E+00
      9.08714656714862E-22  -2.56392962640257E-33   9.08714656712298E-22  -1.39782898543864E-16   0.00000000000000E+00
      0.00000000000000E+00   0.00000000000000E+00   0.00000000000000E+00  -1.18209106474002E-21   1.43266420423717E-33
     -1.18209106473859E-21   4.88436955679735E-18
      0.00000000000000E+00
      0.00000000000000E+00   0.00000000000000E+00   0.00000000000000E+00   0.00000000000000E+00  -1.03743714637382E-19
      1.19966312541425E-33  -1.03743714637381E-19   5.28753119379744E-18   0.00000000000000E+00   0.00000000000000E+00
      0.00000000000000E+00   0.00000000000000E+00   0.00000000000000E+00   0.00000000000000E+00   0.00000000000000E+00
      1.29609363220381E-16   0.00000000000000E+00   0.00000000000000E+00   0.00000000000000E+00   0.00000000000000E+00
      9.86746460420293E-20  -2.57451768073041E-33   9.86746460420267E-20  -1.39781242639558E-16   0.00000000000000E+00
      0.00000000000000E+00   0.00000000000000E+00   0.00000000000000E+00   5.06906859535306E-21   1.37485455531616E-33
      5.06906859535444E-21   4.88434822538038E-18
      1.00000000000000E-03
      0.00000000000000E+00   2.23941313618725E-13   0.00000000000000E+00   0.00000000000000E+00  -9.27397112308343E-13
      1.10982610962170E-33  -9.27397112308343E-13   5.28753119216602E-18   0.00000000000000E+00   0.00000000000000E+00
      0.00000000000000E+00   0.00000000000000E+00   0.00000000000000E+00   0.00000000000000E+00   0.00000000000000E+00
      1.29603649276712E-16   0.00000000000000E+00   0.00000000000000E+00   0.00000000000000E+00   0.00000000000000E+00
      2.84049583083157E-20  -2.16573351434680E-22   2.81883849568810E-20  -1.39781072847052E-16   4.30000000000000E-04
      4.29999999719779E-04   0.00000000000000E+00   0.00000000000000E+00   9.27397083903385E-13   2.16573351433570E-22
      9.27397084119958E-13   4.88989237817446E-18
      2.08666666666667E-03
      0.00000000000000E+00   4.62994618997981E-13   0.00000000000000E+00   0.00000000000000E+00  -1.91742219619187E-12
      1.20159311081796E-33  -1.91742219619187E-12   5.28753119042382E-18   0.00000000000000E+00   0.00000000000000E+00
      0.00000000000000E+00   0.00000000000000E+00   0.00000000000000E+00   0.00000000000000E+00   0.00000000000000E+00
      1.29597441641950E-16   0.00000000000000E+00   0.00000000000000E+00   0.00000000000000E+00   0.00000000000000E+00
      2.60208300484619E-17  -4.48362117079870E-22   2.60203816863448E-17  -1.39780890690719E-16   8.97266666666667E-04
      8.97266666087273E-04   0.00000000000000E+00   0.00000000000000E+00   1.91739617536182E-12   4.48362117078668E-22
      1.91739617581018E-12   4.89591785834556E-18
      3.28200000000000E-03
      0.00000000000000E+00   7.20887576096931E-13   0.00000000000000E+00   0.00000000000000E+00  -2.98543706903146E-12
      1.14843954307370E-33  -2.98543706903146E-12   5.28753118854361E-18   0.00000000000000E+00   0.00000000000000E+00
      0.00000000000000E+00   0.00000000000000E+00   0.00000000000000E+00   0.00000000000000E+00   0.00000000000000E+00
      1.29590615043891E-16   0.00000000000000E+00   0.00000000000000E+00   0.00000000000000E+00   0.00000000000000E+00
      3.70611219991182E-17  -6.99126050254290E-22   3.70604228730680E-17  -1.39780693116552E-16   1.41126000000000E-03
      1.41125999909785E-03   0.00000000000000E+00   0.00000000000000E+00   2.98540000790946E-12   6.99126050253141E-22
      2.98540000860859E-12   4.90254688411720E-18
      4.59686666666667E-03
      0.00000000000000E+00   9.98534216675285E-13   0.00000000000000E+00   0.00000000000000E+00  -4.13529676253929E-12
      1.14790348948641E-33  -4.13529676253929E-12   5.28753118651840E-18   0.00000000000000E+00   0.00000000000000E+00
      0.00000000000000E+00   0.00000000000000E+00   0.00000000000000E+00   0.00000000000000E+00   0.00000000000000E+00
      1.29583107931448E-16   0.00000000000000E+00   0.00000000000000E+00   0.00000000000000E+00   0.00000000000000E+00
      5.31717276226392E-17  -9.69973664641365E-22   5.31707576489746E-17  -1.39780479129788E-16   1.97665266666667E-03
      1.97665266541700E-03   0.00000000000000E+00   0.00000000000000E+00   4.13524359081167E-12   9.69973664640218E-22
      4.13524359178164E-12   4.90984001182244E-18
      6.04322000000000E-03
      0.00000000000000E+00   1.29681678008372E-12   0.00000000000000E+00   0.00000000000000E+00  -5.37057292612140E-12
      1.15840026521192E-33  -5.37057292612140E-12   5.28753118434162E-18   0.00000000000000E+00   0.00000000000000E+00
      0.00000000000000E+00   0.00000000000000E+00   0.00000000000000E+00   0.00000000000000E+00   0.00000000000000E+00
      1.29574852660872E-16   0.00000000000000E+00   0.00000000000000E+00   0.00000000000000E+00   0.00000000000000E+00
      7.62938878711408E-17  -1.26198726670135E-21   7.62926258838741E-17  -1.39780247738526E-16   2.59858460000000E-03
      2.59858459837698E-03   0.00000000000000E+00   0.00000000000000E+00   5.37049663223353E-12   1.26198726670020E-21
      5.37049663349552E-12   4.91786389331332E-18
      7.63420866666667E-03
      0.00000000000000E+00   1.61648415417946E-12   0.00000000000000E+00   0.00000000000000E+00  -6.69442646549428E-12
      1.16494039085010E-33  -6.69442646549428E-12   5.28753118200744E-18   0.00000000000000E+00   0.00000000000000E+00
      0.00000000000000E+00   0.00000000000000E+00   0.00000000000000E+00   0.00000000000000E+00   0.00000000000000E+00
      1.29565774896616E-16   0.00000000000000E+00   0.00000000000000E+00   0.00000000000000E+00   0.00000000000000E+00
      1.08924566408088E-16  -1.57619998364839E-21   1.08922990208104E-16  -1.39779997971720E-16   3.28270972666667E-03
      3.28270972464347E-03   0.00000000000000E+00   0.00000000000000E+00   6.69431754092787E-12   1.57619998364722E-21
      6.69431754250407E-12   4.92669189309673E-18
      9.38429620000000E-03
      0.00000000000000E+00   1.95816953777576E-12   0.00000000000000E+00   0.00000000000000E+00  -8.10945839232898E-12
      1.20615459237113E-33  -8.10945839232898E-12   5.28753117951093E-18   0.00000000000000E+00   0.00000000000000E+00
      0.00000000000000E+00   0.00000000000000E+00   0.00000000000000E+00   0.00000000000000E+00   0.00000000000000E+00
      1.29555792953779E-16   0.00000000000000E+00   0.00000000000000E+00   0.00000000000000E+00   0.00000000000000E+00
      1.55557333047863E-16  -1.91356856662197E-21   1.55555419479296E-16  -1.39779728901819E-16   4.03524736600000E-03
      4.03524736354904E-03   0.00000000000000E+00   0.00000000000000E+00   8.10930283499593E-12   1.91356856662076E-21
      8.10930283690950E-12   4.93640476852852E-18
      1.13093924866667E-02
      0.00000000000000E+00   2.32232420645640E-12   0.00000000000000E+00   0.00000000000000E+00  -9.61754061352411E-12
      1.21892420511934E-33  -9.61754061352411E-12   5.28753117684844E-18   0.00000000000000E+00   0.00000000000000E+00
      0.00000000000000E+00   0.00000000000000E+00   0.00000000000000E+00   0.00000000000000E+00   0.00000000000000E+00
      1.29544817075950E-16   0.00000000000000E+00   0.00000000000000E+00   0.00000000000000E+00   0.00000000000000E+00
      2.21264799266691E-16  -2.27494173536029E-21   2.21262524324956E-16  -1.39779439672376E-16   4.86303876926667E-03
      4.86303876635975E-03   0.00000000000000E+00   0.00000000000000E+00   9.61731934872484E-12   2.27494173535907E-21
      9.61731935099979E-12   4.94709141957802E-18
      1.34269984020000E-02
      0.00000000000000E+00   2.70917688894192E-12   0.00000000000000E+00   0.00000000000000E+00  -1.12196507231485E-11
      1.19672720396211E-33  -1.12196507231485E-11   5.28753117401786E-18   0.00000000000000E+00   0.00000000000000E+00
      0.00000000000000E+00   0.00000000000000E+00   0.00000000000000E+00   0.00000000000000E+00   0.00000000000000E+00
      1.29532748641107E-16   0.00000000000000E+00   0.00000000000000E+00   0.00000000000000E+00   0.00000000000000E+00
      3.13908398598905E-16  -2.66102397142916E-21   3.13905737574934E-16  -1.39779129530472E-16   5.77360931286000E-03
      5.77360930946863E-03   0.00000000000000E+00   0.00000000000000E+00   1.12193368147499E-11   2.66102397142796E-21
      1.12193368174109E-11   4.95884971534717E-18
      1.57563649088667E-02
      0.00000000000000E+00   3.11870639029297E-12   0.00000000000000E+00   0.00000000000000E+00  -1.29156409217116E-11
      1.17394852044595E-33  -1.29156409217116E-11   5.28753117101899E-18   0.00000000000000E+00   0.00000000000000E+00
      0.00000000000000E+00   0.00000000000000E+00   0.00000000000000E+00   0.00000000000000E+00   0.00000000000000E+00
      1.29519479291727E-16   0.00000000000000E+00   0.00000000000000E+00   0.00000000000000E+00   0.00000000000000E+00
      4.44130394503239E-16  -3.07233487111711E-21   4.44127322168368E-16  -1.39778797868015E-16   6.77523691081267E-03
      6.77523690690841E-03   0.00000000000000E+00   0.00000000000000E+00   1.29151967913171E-11   3.07233487111594E-21
      1.29151967943895E-11   4.97178740526801E-18
      1.83186680664200E-02
      0.00000000000000E+00   3.55054886405061E-12   0.00000000000000E+00   0.00000000000000E+00  -1.47040226577725E-11
      1.17772087370821E-33  -1.47040226577725E-11   5.28753116785405E-18   0.00000000000000E+00   0.00000000000000E+00
      0.00000000000000E+00   0.00000000000000E+00   0.00000000000000E+00   0.00000000000000E+00   0.00000000000000E+00
      1.29504889977365E-16   0.00000000000000E+00   0.00000000000000E+00   0.00000000000000E+00   0.00000000000000E+00
      3.04275557959722E-20  -3.50916444937398E-21   2.69183913465982E-20  -1.39778444268927E-16   7.87702726856060E-03
      7.87702726411542E-03   0.00000000000000E+00   0.00000000000000E+00   1.47040226273449E-11   3.50916444937280E-21
      1.47040226308541E-11   4.98602312370743E-18
      2.11201195186783E-02
      0.00000000000000E+00   4.00127337940666E-12   0.00000000000000E+00   0.00000000000000E+00  -1.65706288888342E-11
      1.16842235472978E-33  -1.65706288888342E-11   5.28753116454761E-18   0.00000000000000E+00   0.00000000000000E+00
      0.00000000000000E+00   0.00000000000000E+00   0.00000000000000E+00   0.00000000000000E+00   0.00000000000000E+00
      1.29488947090292E-16   0.00000000000000E+00   0.00000000000000E+00   0.00000000000000E+00   0.00000000000000E+00
      7.57324318542297E-20  -3.96877866939395E-21   7.17636531848358E-20  -1.39778070800942E-16   9.08165139303168E-03
      9.08165138802180E-03   0.00000000000000E+00   0.00000000000000E+00   1.65706288131018E-11   3.96877866939278E-21
      1.65706288170706E-11   5.00159254610268E-18
      2.41830397731474E-02
      0.00000000000000E+00   4.46964886363354E-12   0.00000000000000E+00   0.00000000000000E+00  -1.85102841372192E-11
      1.17902580104931E-33  -1.85102841372192E-11   5.28753116110843E-18   0.00000000000000E+00   0.00000000000000E+00
      0.00000000000000E+00   0.00000000000000E+00   0.00000000000000E+00   0.00000000000000E+00   0.00000000000000E+00
      1.29471525552191E-16   0.00000000000000E+00   0.00000000000000E+00   0.00000000000000E+00   0.00000000000000E+00
     -3.68223311534622E-20  -4.45070793287657E-21  -4.12730390863388E-20  -1.39777677759021E-16   1.03987071024534E-02
      1.03987070968566E-02   0.00000000000000E+00   0.00000000000000E+00   1.85102841740415E-11   4.45070793287540E-21
      1.85102841784922E-11   5.01862104572191E-18
      2.75318325847003E-02
      0.00000000000000E+00   4.95399120217496E-12   0.00000000000000E+00   0.00000000000000E+00  -2.05160902964065E-11
      1.11659608086997E-33  -2.05160902964065E-11   5.28753115754830E-18   0.00000000000000E+00   0.00000000000000E+00
      0.00000000000000E+00   0.00000000000000E+00   0.00000000000000E+00   0.00000000000000E+00   0.00000000000000E+00
      1.29452488773111E-16   0.00000000000000E+00   0.00000000000000E+00   0.00000000000000E+00   0.00000000000000E+00
     -7.01255946179663E-20  -4.95415996102196E-21  -7.50797545789883E-20  -1.39777265776956E-16   1.18386880114211E-02
      1.18386880052173E-02   0.00000000000000E+00   0.00000000000000E+00   2.05160903665321E-11   4.95415996102085E-21
      2.05160903714862E-11   5.03724584629633E-18
      3.11931793919981E-02
      0.00000000000000E+00   5.45219061544256E-12   0.00000000000000E+00   0.00000000000000E+00  -2.25792804766912E-11
      1.15397848079065E-33  -2.25792804766912E-11   5.28753115388237E-18   0.00000000000000E+00   0.00000000000000E+00
      0.00000000000000E+00   0.00000000000000E+00   0.00000000000000E+00   0.00000000000000E+00   0.00000000000000E+00
      1.29431687589637E-16   0.00000000000000E+00   0.00000000000000E+00   0.00000000000000E+00   0.00000000000000E+00
      5.17170648018540E-21  -5.47798594378880E-21  -3.06279463603400E-22  -1.39776835893527E-16   1.34130671385592E-02
      1.34130671317308E-02   0.00000000000000E+00   0.00000000000000E+00   2.25792804715195E-11   5.47798594378764E-21
      2.25792804769975E-11   5.05761715000638E-18
      3.51962519013104E-02
      0.00000000000000E+00   5.96166220395744E-12   0.00000000000000E+00   0.00000000000000E+00  -2.46891064061630E-11
      1.16222078994288E-33  -2.46891064061630E-11   5.28753115012938E-18   0.00000000000000E+00   0.00000000000000E+00
      0.00000000000000E+00   0.00000000000000E+00   0.00000000000000E+00   0.00000000000000E+00   0.00000000000000E+00
      1.29408959102698E-16   0.00000000000000E+00   0.00000000000000E+00   0.00000000000000E+00   0.00000000000000E+00
     -7.85157403994460E-21  -6.02065179799203E-21  -1.38722258379366E-20  -1.39776389625961E-16   1.51343883175635E-02
      1.51343883100962E-02   0.00000000000000E+00   0.00000000000000E+00   2.46891064140146E-11   6.02065179799087E-21
      2.46891064200353E-11   5.07989937313343E-18
      3.95729445114918E-02
      0.00000000000000E+00   6.47929296100175E-12   0.00000000000000E+00   0.00000000000000E+00  -2.68327726182587E-11
      1.10828044116673E-33  -2.68327726182587E-11   5.28753114631179E-18   0.00000000000000E+00   0.00000000000000E+00
      0.00000000000000E+00   0.00000000000000E+00   0.00000000000000E+00   0.00000000000000E+00   0.00000000000000E+00
      1.29384125404923E-16   0.00000000000000E+00   0.00000000000000E+00   0.00000000000000E+00   0.00000000000000E+00
      2.76095678685764E-20  -6.58021736833386E-21   2.10293505002426E-20  -1.39775929050660E-16   1.70163661399415E-02
      1.70163661318249E-02   0.00000000000000E+00   0.00000000000000E+00   2.68327725906491E-11   6.58021736833276E-21
      2.68327725972293E-11   5.10427249942480E-18
      4.43581284319568E-02
      0.00000000000000E+00   7.00151330553902E-12   0.00000000000000E+00   0.00000000000000E+00  -2.89954321053972E-11
      1.13257307791408E-33  -2.89954321053972E-11   5.28753114245578E-18   0.00000000000000E+00   0.00000000000000E+00
      0.00000000000000E+00   0.00000000000000E+00   0.00000000000000E+00   0.00000000000000E+00   0.00000000000000E+00
      1.29356992186380E-16   0.00000000000000E+00   0.00000000000000E+00   0.00000000000000E+00   0.00000000000000E+00
      1.36797085107265E-20  -7.15432684262439E-21   6.52538166810214E-21  -1.39775456890894E-16   1.90739952257414E-02
      1.90739952169695E-02   0.00000000000000E+00   0.00000000000000E+00   2.89954320917175E-11   7.15432684262326E-21
      2.89954320988718E-11   5.13093356205793E-18
      4.95899295183319E-02
      0.00000000000000E+00   7.52426617292759E-12   0.00000000000000E+00   0.00000000000000E+00  -3.11602627308224E-11
      1.16483489176932E-33  -3.11602627308224E-11   5.28753113859124E-18   0.00000000000000E+00   0.00000000000000E+00
      0.00000000000000E+00   0.00000000000000E+00   0.00000000000000E+00   0.00000000000000E+00   0.00000000000000E+00
      1.29327347206384E-16   0.00000000000000E+00   0.00000000000000E+00   0.00000000000000E+00   0.00000000000000E+00
      5.74842023610463E-20  -7.74021399427739E-21   4.97439883667689E-20  -1.39774976610945E-16   2.13236696928827E-02
      2.13236696834546E-02   0.00000000000000E+00   0.00000000000000E+00   3.11602626733382E-11   7.74021399427623E-21
      3.11602626810784E-11   5.16009826596975E-18
      5.53100320394353E-02
      0.00000000000000E+00   8.04304145669710E-12   0.00000000000000E+00   0.00000000000000E+00  -3.33086333202511E-11
      1.15585003812836E-33  -3.33086333202511E-11   5.28753113475139E-18   0.00000000000000E+00   0.00000000000000E+00
      0.00000000000000E+00   0.00000000000000E+00   0.00000000000000E+00   0.00000000000000E+00   0.00000000000000E+00
      1.29294958618244E-16   0.00000000000000E+00   0.00000000000000E+00   0.00000000000000E+00   0.00000000000000E+00
      6.85943347300349E-20  -8.33472603647799E-21   6.02596086935570E-20  -1.39774492516244E-16   2.37833137769572E-02
      2.37833137668775E-02   0.00000000000000E+00   0.00000000000000E+00   3.33086332516568E-11   8.33472603647683E-21
      3.33086332599915E-11   5.19200276324809E-18
      6.15640107958417E-02
      0.00000000000000E+00   8.55298021700028E-12   0.00000000000000E+00   0.00000000000000E+00  -3.54203718658439E-11
      1.15521288035608E-33  -3.54203718658439E-11   5.28753113097241E-18   0.00000000000000E+00   0.00000000000000E+00
      0.00000000000000E+00   0.00000000000000E+00   0.00000000000000E+00   0.00000000000000E+00   0.00000000000000E+00
      1.29259573132429E-16   0.00000000000000E+00   0.00000000000000E+00   0.00000000000000E+00   0.00000000000000E+00
     -2.06563037028256E-19  -8.93436978241619E-21  -2.15497406810672E-19  -1.39774009858643E-16   2.64725246422119E-02
      2.64725246314914E-02   0.00000000000000E+00   0.00000000000000E+00   3.54203720724069E-11   8.93436978241505E-21
      3.54203720813413E-11   5.22690559524124E-18
      6.84016942361794E-02
      0.00000000000000E+00   9.04893296669619E-12   0.00000000000000E+00   0.00000000000000E+00  -3.74742091742164E-11
      1.09202092400957E-33  -3.74742091742164E-11   5.28753112729260E-18   0.00000000000000E+00   0.00000000000000E+00
      0.00000000000000E+00   0.00000000000000E+00   0.00000000000000E+00   0.00000000000000E+00   0.00000000000000E+00
      1.29220913998305E-16   0.00000000000000E+00   0.00000000000000E+00   0.00000000000000E+00   0.00000000000000E+00
      3.88184153864094E-20  -9.53538335331745E-21   2.92830320330920E-20  -1.39773534941565E-16   2.94127285215572E-02
      2.94127285102130E-02   0.00000000000000E+00   0.00000000000000E+00   3.74742091353979E-11   9.53538335331636E-21
      3.74742091449333E-11   5.26508981596763E-18
      7.58775614642820E-02
      0.00000000000000E+00   9.52562304900778E-12   0.00000000000000E+00   0.00000000000000E+00  -3.94482653832598E-11
      1.17726386686178E-33  -3.94482653832598E-11   5.28753112375156E-18   0.00000000000000E+00   0.00000000000000E+00
      0.00000000000000E+00   0.00000000000000E+00   0.00000000000000E+00   0.00000000000000E+00   0.00000000000000E+00
      1.29178678795188E-16   0.00000000000000E+00   0.00000000000000E+00   0.00000000000000E+00   0.00000000000000E+00
     -5.79963665512891E-21  -1.01338357589116E-20  -1.59334724140405E-20  -1.39773075231625E-16   3.26273514296412E-02
      3.26273514176970E-02   0.00000000000000E+00   0.00000000000000E+00   3.94482653890594E-11   1.01338357589105E-20
      3.94482653991933E-11   5.30686531268543E-18
      8.40511763003407E-02
      0.00000000000000E+00   9.97778705399505E-12   0.00000000000000E+00   0.00000000000000E+00  -4.13207360853283E-11
      1.15845593087671E-33  -4.13207360853283E-11   5.28753112038892E-18   0.00000000000000E+00   0.00000000000000E+00
      0.00000000000000E+00   0.00000000000000E+00   0.00000000000000E+00   0.00000000000000E+00   0.00000000000000E+00
      1.29132537004606E-16   0.00000000000000E+00   0.00000000000000E+00   0.00000000000000E+00   0.00000000000000E+00
      6.42728577566580E-20  -1.07257552068071E-20   5.35471025498509E-20  -1.39772639465121E-16   3.61420058091465E-02
      3.61420057966326E-02   0.00000000000000E+00   0.00000000000000E+00   4.13207360210554E-11   1.07257552068059E-20
      4.13207360317812E-11   5.35257134012584E-18
      9.29876618544316E-02
      0.00000000000000E+00   1.04003381962127E-11   0.00000000000000E+00   0.00000000000000E+00  -4.30706404199167E-11
      1.21658227885608E-33  -4.30706404199167E-11   5.28753111724299E-18   0.00000000000000E+00   0.00000000000000E+00
      0.00000000000000E+00   0.00000000000000E+00   0.00000000000000E+00   0.00000000000000E+00   0.00000000000000E+00
      1.29082127350660E-16   0.00000000000000E+00   0.00000000000000E+00   0.00000000000000E+00   0.00000000000000E+00
      1.00642776345624E-20  -1.13072849304610E-20  -1.24300729589860E-21  -1.39772237754524E-16   3.99846945974056E-02
      3.99846945843586E-02   0.00000000000000E+00   0.00000000000000E+00   4.30706404098524E-11   1.13072849304598E-20
      4.30706404211597E-11   5.40257928662071E-18
      1.02758219393571E-01
      0.00000000000000E+00   1.07886391995542E-11   0.00000000000000E+00   0.00000000000000E+00  -4.46786668050992E-11
      1.19068725689214E-33  -4.46786668050992E-11   5.28753111434920E-18   0.00000000000000E+00   0.00000000000000E+00
      0.00000000000000E+00   0.00000000000000E+00   0.00000000000000E+00   0.00000000000000E+00   0.00000000000000E+00
      1.29027054883371E-16   0.00000000000000E+00   0.00000000000000E+00   0.00000000000000E+00   0.00000000000000E+00
      3.18203524189517E-20  -1.18748626785872E-20   1.99454897403645E-20  -1.39771881688706E-16   4.41860343392356E-02
      4.41860343256980E-02   0.00000000000000E+00   0.00000000000000E+00   4.46786667732789E-11   1.18748626785860E-20
      4.46786667851537E-11   5.45729569098625E-18
      1.12758219393571E-01
      0.00000000000000E+00   1.11183609230067E-11   0.00000000000000E+00   0.00000000000000E+00  -4.60440998499272E-11
      1.14805673657697E-33  -4.60440998499272E-11   5.28753111188975E-18   0.00000000000000E+00   0.00000000000000E+00
      0.00000000000000E+00   0.00000000000000E+00   0.00000000000000E+00   0.00000000000000E+00   0.00000000000000E+00
      1.28970730375884E-16   0.00000000000000E+00   0.00000000000000E+00   0.00000000000000E+00   0.00000000000000E+00
     -9.72771078693884E-20  -1.23922128323974E-20  -1.09669320701786E-19  -1.39771600682379E-16   4.84860343392356E-02
      4.84860343252806E-02   0.00000000000000E+00   0.00000000000000E+00   4.60440999472043E-11   1.23922128323962E-20
      4.60440999595965E-11   5.51333919460463E-18
      1.22758219393571E-01
      0.00000000000000E+00   1.13903361510625E-11   0.00000000000000E+00   0.00000000000000E+00  -4.71703697254506E-11
      1.20249970447252E-33  -4.71703697254506E-11   5.28753110985955E-18   0.00000000000000E+00   0.00000000000000E+00
      0.00000000000000E+00   0.00000000000000E+00   0.00000000000000E+00   0.00000000000000E+00   0.00000000000000E+00
      1.28914443580835E-16   0.00000000000000E+00   0.00000000000000E+00   0.00000000000000E+00   0.00000000000000E+00
     -8.24923744658267E-20  -1.28545164878356E-20  -9.53468909536623E-20  -1.39771397869479E-16   5.27860343392356E-02
      5.27860343249355E-02   0.00000000000000E+00   0.00000000000000E+00   4.71703698079430E-11   1.28545164878344E-20
      4.71703698207975E-11   5.56942317878446E-18
      1.32758219393571E-01
      0.00000000000000E+00   1.16137113831760E-11   0.00000000000000E+00   0.00000000000000E+00  -4.80954274974975E-11
      1.17459868588017E-33  -4.80954274974975E-11   5.28753110819099E-18   0.00000000000000E+00   0.00000000000000E+00
      0.00000000000000E+00   0.00000000000000E+00   0.00000000000000E+00   0.00000000000000E+00   0.00000000000000E+00
      1.28858190933312E-16   0.00000000000000E+00   0.00000000000000E+00   0.00000000000000E+00   0.00000000000000E+00
      6.36903776894888E-20  -1.32697564528337E-20   5.04206212366551E-20  -1.39771267584316E-16   5.70860343392356E-02
      5.70860343246513E-02   0.00000000000000E+00   0.00000000000000E+00   4.80954274338071E-11   1.32697564528325E-20
      4.80954274470769E-11   5.62554554281257E-18
      1.42758219393571E-01
      0.00000000000000E+00   1.17962651620905E-11   0.00000000000000E+00   0.00000000000000E+00  -4.88514055818268E-11
      1.14536002646056E-33  -4.88514055818268E-11   5.28753110682670E-18   0.00000000000000E+00   0.00000000000000E+00
      0.00000000000000E+00   0.00000000000000E+00   0.00000000000000E+00   0.00000000000000E+00   0.00000000000000E+00
      1.28801969271310E-16   0.00000000000000E+00   0.00000000000000E+00   0.00000000000000E+00   0.00000000000000E+00
      1.63076388617703E-20  -1.36447643035421E-20   2.66287455822828E-21  -1.39771204675379E-16   6.13860343392356E-02
      6.13860343244182E-02   0.00000000000000E+00   0.00000000000000E+00   4.88514055655192E-11   1.36447643035409E-20
      4.88514055791639E-11   5.68170429724160E-18
      1.52758219393571E-01
      0.00000000000000E+00   1.19445626202717E-11   0.00000000000000E+00   0.00000000000000E+00  -4.94655140922490E-11
      1.13849551181908E-33  -4.94655140922490E-11   5.28753110571796E-18   0.00000000000000E+00   0.00000000000000E+00
      0.00000000000000E+00   0.00000000000000E+00   0.00000000000000E+00   0.00000000000000E+00   0.00000000000000E+00
      1.28745775783276E-16   0.00000000000000E+00   0.00000000000000E+00   0.00000000000000E+00   0.00000000000000E+00
     -9.61878745734712E-20  -1.39853858224823E-20  -1.10173260395953E-19  -1.39771204447040E-16   6.56860343392356E-02
      6.56860343242280E-02   0.00000000000000E+00   0.00000000000000E+00   4.94655141884368E-11   1.39853858224811E-20
      4.94655142024222E-11   5.73789755804651E-18
      1.62758219393571E-01
      0.00000000000000E+00   1.20641612474428E-11   0.00000000000000E+00   0.00000000000000E+00  -4.99607821789087E-11
      1.21072512038842E-33  -4.99607821789087E-11   5.28753110482348E-18   0.00000000000000E+00   0.00000000000000E+00
      0.00000000000000E+00   0.00000000000000E+00   0.00000000000000E+00   0.00000000000000E+00   0.00000000000000E+00
      1.28689607963972E-16   0.00000000000000E+00   0.00000000000000E+00   0.00000000000000E+00   0.00000000000000E+00
      2.21074371914137E-20  -1.42966227422550E-20   7.81081444915874E-21  -1.39771262609885E-16   6.99860343392356E-02
      6.99860343240737E-02   0.00000000000000E+00   0.00000000000000E+00   4.99607821568013E-11   1.42966227422537E-20
      4.99607821710979E-11   5.79412354109045E-18
      1.72758219393571E-01
      0.00000000000000E+00   1.21597627876511E-11   0.00000000000000E+00   0.00000000000000E+00  -5.03566866557460E-11
      1.18233908362837E-33  -5.03566866557460E-11   5.28753110410824E-18   0.00000000000000E+00   0.00000000000000E+00
      0.00000000000000E+00   0.00000000000000E+00   0.00000000000000E+00   0.00000000000000E+00   0.00000000000000E+00
      1.28633463576148E-16   0.00000000000000E+00   0.00000000000000E+00   0.00000000000000E+00   0.00000000000000E+00
      9.18945570950472E-20  -1.45827541763874E-20   7.73118029186598E-20  -1.39771375237099E-16   7.42860343392356E-02
      7.42860343239496E-02   0.00000000000000E+00   0.00000000000000E+00   5.03566865638514E-11   1.45827541763862E-20
      5.03566865784342E-11   5.85038055684246E-18
      1.82758219393571E-01
      0.00000000000000E+00   1.22353395257808E-11   0.00000000000000E+00   0.00000000000000E+00  -5.06696795616406E-11
      1.18219838854031E-33  -5.06696795616406E-11   5.28753110354267E-18   0.00000000000000E+00   0.00000000000000E+00
      0.00000000000000E+00   0.00000000000000E+00   0.00000000000000E+00   0.00000000000000E+00   0.00000000000000E+00
      1.28577340617778E-16   0.00000000000000E+00   0.00000000000000E+00   0.00000000000000E+00   0.00000000000000E+00
     -4.76643021734873E-20  -1.48474406382263E-20  -6.25117428117137E-20  -1.39771538726684E-16   7.85860343392356E-02
      7.85860343238505E-02   0.00000000000000E+00   0.00000000000000E+00   5.06696796093049E-11   1.48474406382252E-20
      5.06696796241523E-11   5.90666700536270E-18
      1.92758219393571E-01
      0.00000000000000E+00   1.22942490934747E-11   0.00000000000000E+00   0.00000000000000E+00  -5.09136345060216E-11