DF-ISE text

Info {
  version   = 1.0
  type      = xyplot
  datasets  = [
    "time"
    "source OuterVoltage" "source InnerVoltage" "source QuasiFermiPotential" "source DisplacementCurrent" "source eCurrent"
    "source hCurrent" "source TotalCurrent" "source Charge" "gate OuterVoltage" "gate InnerVoltage"
    "gate QuasiFermiPotential" "gate DisplacementCurrent" "gate eCurrent" "gate hCurrent" "gate TotalCurrent"
    "gate Charge" "substrate OuterVoltage" "substrate InnerVoltage" "substrate QuasiFermiPotential" "substrate DisplacementCurrent"
    "substrate eCurrent" "substrate hCurrent" "substrate TotalCurrent" "substrate Charge" "drain OuterVoltage"
    "drain InnerVoltage" "drain QuasiFermiPotential" "drain DisplacementCurrent" "drain eCurrent" "drain hCurrent"
    "drain TotalCurrent" "drain Charge" ]
  functions = [
    Time
    OuterVoltage InnerVoltage QuasiFermiPotential DisplacementCurrent eCurrent
    hCurrent TotalCurrent Charge OuterVoltage InnerVoltage
    QuasiFermiPotential DisplacementCurrent eCurrent hCurrent TotalCurrent
    Charge OuterVoltage InnerVoltage QuasiFermiPotential DisplacementCurrent
    eCurrent hCurrent TotalCurrent Charge OuterVoltage
    InnerVoltage QuasiFermiPotential DisplacementCurrent eCurrent hCurrent
    TotalCurrent Charge ]
}

Data {
      0.00000000000000E+00
      0.00000000000000E+00   0.00000000000000E+00   0.00000000000000E+00   0.00000000000000E+00   4.52981563737725E-21
      1.14299482892638E-33   4.52981563737839E-21   4.89619239475552E-18   0.00000000000000E+00   0.00000000000000E+00
      0.00000000000000E+00   0.00000000000000E+00   0.00000000000000E+00   0.00000000000000E+00   0.00000000000000E+00
      4.66895440543183E-17   0.00000000000000E+00   0.00000000000000E+00   0.00000000000000E+00   0.00000000000000E+00
     -5.09087895962400E-21  -2.12430970731063E-33  -5.09087895962613E-21  -5.56095688759014E-17   0.00000000000000E+00
      0.00000000000000E+00   0.00000000000000E+00   0.00000000000000E+00   5.61063322246755E-22   9.81314878384246E-34
      5.61063322247736E-22   4.02383242682754E-18
      0.00000000000000E+00
      0.00000000000000E+00   0.00000000000000E+00   0.00000000000000E+00   0.00000000000000E+00   2.75835486299803E-20
      1.12140028642225E-33   2.75835486299814E-20   4.89616500969950E-18   0.00000000000000E+00   0.00000000000000E+00
      0.00000000000000E+00   0.00000000000000E+00   0.00000000000000E+00   0.00000000000000E+00   0.00000000000000E+00
      4.66889038518384E-17   0.00000000000000E+00   0.00000000000000E+00   0.00000000000000E+00   0.00000000000000E+00
     -2.97040376305092E-20  -2.09901956176979E-33  -2.97040376305113E-20  -5.56088814209470E-17   0.00000000000000E+00
      0.00000000000000E+00   0.00000000000000E+00   0.00000000000000E+00   2.12048900052896E-21   9.77619275347531E-34
      2.12048900052994E-21   4.02381255940906E-18
      1.00000000000000E-03
      0.00000000000000E+00   6.44910783486951E-13   0.00000000000000E+00   0.00000000000000E+00  -2.63693251111690E-12
      1.17394861985666E-33  -2.63693251111690E-12   4.89616499852585E-18   0.00000000000000E+00   0.00000000000000E+00
      0.00000000000000E+00   0.00000000000000E+00   0.00000000000000E+00   0.00000000000000E+00   0.00000000000000E+00
      4.66837903260410E-17   0.00000000000000E+00   0.00000000000000E+00   0.00000000000000E+00   0.00000000000000E+00
     -1.32849775413481E-20  -2.10979857468485E-33  -1.32849775413502E-20  -5.56087907266204E-17   4.30000000000000E-04
      4.29999999295386E-04   0.00000000000000E+00   0.00000000000000E+00   2.63693252440187E-12   9.35849954828189E-34
      2.63693252440187E-12   4.02883540205367E-18
      2.08666666666667E-03
      0.00000000000000E+00   1.33273602043412E-12   0.00000000000000E+00   0.00000000000000E+00  -5.44936283230802E-12
      1.16109463196498E-33  -5.44936283230802E-12   4.89616498651449E-18   0.00000000000000E+00   0.00000000000000E+00
      0.00000000000000E+00   0.00000000000000E+00   0.00000000000000E+00   0.00000000000000E+00   0.00000000000000E+00
      4.66782345505303E-17   0.00000000000000E+00   0.00000000000000E+00   0.00000000000000E+00   0.00000000000000E+00
      1.21615712322591E-17  -2.12069617185877E-33   1.21615712322591E-17  -5.56086938046640E-17   8.97266666666667E-04
      8.97266665210538E-04   0.00000000000000E+00   0.00000000000000E+00   5.44935067073678E-12   9.59601539893785E-34
      5.44935067073678E-12   4.03429426761907E-18
      3.28200000000000E-03
      0.00000000000000E+00   2.07392746531123E-12   0.00000000000000E+00   0.00000000000000E+00  -8.47996923182323E-12
      1.16683225019392E-33  -8.47996923182323E-12   4.89616497345701E-18   0.00000000000000E+00   0.00000000000000E+00
      0.00000000000000E+00   0.00000000000000E+00   0.00000000000000E+00   0.00000000000000E+00   0.00000000000000E+00
      4.66721242944614E-17   0.00000000000000E+00   0.00000000000000E+00   0.00000000000000E+00   0.00000000000000E+00
      1.73623774687297E-17  -2.11550428032418E-33   1.73623774687297E-17  -5.56085891358674E-17   1.41126000000000E-03
      1.41125999773408E-03   0.00000000000000E+00   0.00000000000000E+00   8.47995186944577E-12   9.48672030130262E-34
      8.47995186944577E-12   4.04029986794906E-18
      4.59686666666667E-03
      0.00000000000000E+00   2.87087661377556E-12   0.00000000000000E+00   0.00000000000000E+00  -1.17385624700647E-11
      1.18799038325917E-33  -1.17385624700647E-11   4.89616495927828E-18   0.00000000000000E+00   0.00000000000000E+00
      0.00000000000000E+00   0.00000000000000E+00   0.00000000000000E+00   0.00000000000000E+00   0.00000000000000E+00
      4.66654043234674E-17   0.00000000000000E+00   0.00000000000000E+00   0.00000000000000E+00   0.00000000000000E+00
      2.47618325650282E-17  -2.10483776293432E-33   2.47618325650282E-17  -5.56084763297890E-17   1.97665266666667E-03
      1.97665266353003E-03   0.00000000000000E+00   0.00000000000000E+00   1.17385377082322E-11   9.16847379675152E-34
      1.17385377082322E-11   4.04690704704348E-18
      6.04322000000000E-03
      0.00000000000000E+00   3.72573121968182E-12   0.00000000000000E+00   0.00000000000000E+00  -1.52339334259807E-11
      1.16893843569018E-33  -1.52339334259807E-11   4.89616494390069E-18   0.00000000000000E+00   0.00000000000000E+00
      0.00000000000000E+00   0.00000000000000E+00   0.00000000000000E+00   0.00000000000000E+00   0.00000000000000E+00
      4.66580139194619E-17   0.00000000000000E+00   0.00000000000000E+00   0.00000000000000E+00   0.00000000000000E+00
      3.50314222783750E-17  -2.05442145447018E-33   3.50314222783750E-17  -5.56083550300345E-17   2.59858460000000E-03
      2.59858459592937E-03   0.00000000000000E+00   0.00000000000000E+00   1.52338983945584E-11   8.85483018779994E-34
      1.52338983945584E-11   4.05417616667209E-18
      7.63420866666667E-03
      0.00000000000000E+00   4.64030256722243E-12   0.00000000000000E+00   0.00000000000000E+00  -1.89734478214991E-11
      1.18124170590588E-33  -1.89734478214991E-11   4.89616492724475E-18   0.00000000000000E+00   0.00000000000000E+00
      0.00000000000000E+00   0.00000000000000E+00   0.00000000000000E+00   0.00000000000000E+00   0.00000000000000E+00
      4.66498863390488E-17   0.00000000000000E+00   0.00000000000000E+00   0.00000000000000E+00   0.00000000000000E+00
      4.99193538877505E-17  -2.07298949102348E-33   4.99193538877505E-17  -5.56082249306791E-17   3.28270972666667E-03
      3.28270972159684E-03   0.00000000000000E+00   0.00000000000000E+00   1.89733979021452E-11   8.91747785117607E-34
      1.89733979021452E-11   4.06217366438572E-18
      9.38429620000000E-03
      0.00000000000000E+00   5.61592152196444E-12   0.00000000000000E+00   0.00000000000000E+00  -2.29625793494549E-11
      1.17707637751153E-33  -2.29625793494549E-11   4.89616490922976E-18   0.00000000000000E+00   0.00000000000000E+00
      0.00000000000000E+00   0.00000000000000E+00   0.00000000000000E+00   0.00000000000000E+00   0.00000000000000E+00
      4.66409482188209E-17   0.00000000000000E+00   0.00000000000000E+00   0.00000000000000E+00   0.00000000000000E+00
      7.09175196927872E-17  -1.99906017603737E-33   7.09175196927872E-17  -5.56080857964515E-17   4.03524736600000E-03
      4.03524735986429E-03   0.00000000000000E+00   0.00000000000000E+00   2.29625084319352E-11   8.21983798525848E-34
      2.29625084319352E-11   4.07097266840099E-18
      1.13093924866667E-02
      0.00000000000000E+00   6.65334845235722E-12   0.00000000000000E+00   0.00000000000000E+00  -2.72043874098982E-11
      1.14998554394025E-33  -2.72043874098982E-11   4.89616488977456E-18   0.00000000000000E+00   0.00000000000000E+00
      0.00000000000000E+00   0.00000000000000E+00   0.00000000000000E+00   0.00000000000000E+00   0.00000000000000E+00
      4.66311189222301E-17   0.00000000000000E+00   0.00000000000000E+00   0.00000000000000E+00   0.00000000000000E+00
      1.00145884767731E-16  -1.96125458743746E-33   1.00145884767731E-16  -5.56079374871979E-17   4.86303876926667E-03
      4.86303876199757E-03   0.00000000000000E+00   0.00000000000000E+00   2.72042872640134E-11   8.11269043497214E-34
      2.72042872640134E-11   4.08065367519315E-18
      1.34269984020000E-02
      0.00000000000000E+00   7.75260190397271E-12   0.00000000000000E+00   0.00000000000000E+00  -3.16989946109126E-11
      1.14319114238341E-33  -3.16989946109126E-11   4.89616486879831E-18   0.00000000000000E+00   0.00000000000000E+00
      0.00000000000000E+00   0.00000000000000E+00   0.00000000000000E+00   0.00000000000000E+00   0.00000000000000E+00
      4.66203098217227E-17   0.00000000000000E+00   0.00000000000000E+00   0.00000000000000E+00   0.00000000000000E+00
      1.41194733693731E-16  -1.96394653082761E-33   1.41194733693731E-16  -5.56077799867221E-17   5.77360931286000E-03
      5.77360930438999E-03   0.00000000000000E+00   0.00000000000000E+00   3.16988534161789E-11   8.20755388444199E-34
      3.16988534161789E-11   4.09130529620117E-18
      1.57563649088667E-02
      0.00000000000000E+00   8.91282259864453E-12   0.00000000000000E+00   0.00000000000000E+00  -3.64429033412259E-11
      1.14612870119096E-33  -3.64429033412259E-11   4.89616484622160E-18   0.00000000000000E+00   0.00000000000000E+00
      0.00000000000000E+00   0.00000000000000E+00   0.00000000000000E+00   0.00000000000000E+00   0.00000000000000E+00
      4.66084235112990E-17   0.00000000000000E+00   0.00000000000000E+00   0.00000000000000E+00   0.00000000000000E+00
      1.98207531003491E-16  -1.92475802474985E-33   1.98207531003491E-16  -5.56076134383324E-17   6.77523691081267E-03
      6.77523690107516E-03   0.00000000000000E+00   0.00000000000000E+00   3.64427051336949E-11   7.78629323558888E-34
      3.64427051336949E-11   4.10302508081179E-18
      1.83186680664200E-02
      0.00000000000000E+00   1.01321241867700E-11   0.00000000000000E+00   0.00000000000000E+00  -4.14283467357484E-11
      1.10808716896624E-33  -4.14283467357484E-11   4.89616482196750E-18   0.00000000000000E+00   0.00000000000000E+00
      0.00000000000000E+00   0.00000000000000E+00   0.00000000000000E+00   0.00000000000000E+00   0.00000000000000E+00
      4.65953529407782E-17   0.00000000000000E+00   0.00000000000000E+00   0.00000000000000E+00   0.00000000000000E+00
      2.77203371547999E-16  -1.85632279170840E-33   2.77203371547999E-16  -5.56074381860720E-17   7.87702726856060E-03
      7.87702725749108E-03   0.00000000000000E+00   0.00000000000000E+00   4.14280695323768E-11   7.48235622742164E-34
      4.14280695323768E-11   4.11592042332629E-18
      2.11372015397287E-02
      0.00000000000000E+00   1.14073883628966E-11   0.00000000000000E+00   0.00000000000000E+00  -4.66425852727652E-11
      1.16519775805503E-33  -4.66425852727652E-11   4.89616479596265E-18   0.00000000000000E+00   0.00000000000000E+00
      0.00000000000000E+00   0.00000000000000E+00   0.00000000000000E+00   0.00000000000000E+00   0.00000000000000E+00
      4.65809804648441E-17   0.00000000000000E+00   0.00000000000000E+00   0.00000000000000E+00   0.00000000000000E+00
      1.45413462147034E-20  -1.88423300227837E-33   1.45413462147015E-20  -5.56072548233306E-17   9.08899666208333E-03
      9.08899664962068E-03   0.00000000000000E+00   0.00000000000000E+00   4.66425852582238E-11   7.19035244223347E-34
      4.66425852582238E-11   4.13010956252380E-18
      2.42187981372128E-02
      0.00000000000000E+00   1.27263105816057E-11   0.00000000000000E+00   0.00000000000000E+00  -5.20353238101977E-11
      1.12901009972894E-33  -5.20353238101977E-11   4.89616476830459E-18   0.00000000000000E+00   0.00000000000000E+00
      0.00000000000000E+00   0.00000000000000E+00   0.00000000000000E+00   0.00000000000000E+00   0.00000000000000E+00
      4.65652725590911E-17   0.00000000000000E+00   0.00000000000000E+00   0.00000000000000E+00   0.00000000000000E+00
      2.95078641149277E-20  -1.83550774805966E-33   2.95078641149259E-20  -5.56070653698421E-17   1.04140831990015E-02
      1.04140831850981E-02   0.00000000000000E+00   0.00000000000000E+00   5.20353237806898E-11   7.06497648330715E-34
      5.20353237806898E-11   4.14562804244662E-18
      2.75880104171288E-02
      0.00000000000000E+00   1.40829041556519E-11   0.00000000000000E+00   0.00000000000000E+00  -5.75820507827580E-11
      1.11457798500100E-33  -5.75820507827580E-11   4.89616473894623E-18   0.00000000000000E+00   0.00000000000000E+00
      0.00000000000000E+00   0.00000000000000E+00   0.00000000000000E+00   0.00000000000000E+00   0.00000000000000E+00
      4.65481055350783E-17   0.00000000000000E+00   0.00000000000000E+00   0.00000000000000E+00   0.00000000000000E+00
     -1.24413687974123E-20  -1.79542108647617E-33  -1.24413687974141E-20  -5.56068710755131E-17   1.18628444793654E-02
      1.18628444639801E-02   0.00000000000000E+00   0.00000000000000E+00   5.75820507951993E-11   6.80843101475173E-34
      5.75820507951993E-11   4.16260080148851E-18
      3.12716825098370E-02
      0.00000000000000E+00   1.54697729343227E-11   0.00000000000000E+00   0.00000000000000E+00  -6.32525456125769E-11
      1.12779200541319E-33  -6.32525456125769E-11   4.89616470784604E-18   0.00000000000000E+00   0.00000000000000E+00
      0.00000000000000E+00   0.00000000000000E+00   0.00000000000000E+00   0.00000000000000E+00   0.00000000000000E+00
      4.65293442893409E-17   0.00000000000000E+00   0.00000000000000E+00   0.00000000000000E+00   0.00000000000000E+00
      4.97212942205345E-20  -1.76602414960719E-33   4.97212942205327E-20  -5.56066735732399E-17   1.34468234792299E-02
      1.34468234623298E-02   0.00000000000000E+00   0.00000000000000E+00   6.32525455628555E-11   6.38232144194000E-34
      6.32525455628555E-11   4.18116457605305E-18
      3.52991639978646E-02
      0.00000000000000E+00   1.68780768616617E-11   0.00000000000000E+00   0.00000000000000E+00  -6.90106566699315E-11
      1.17161499370408E-33  -6.90106566699315E-11   4.89616467496796E-18   0.00000000000000E+00   0.00000000000000E+00
      0.00000000000000E+00   0.00000000000000E+00   0.00000000000000E+00   0.00000000000000E+00   0.00000000000000E+00
      4.65088412492996E-17   0.00000000000000E+00   0.00000000000000E+00   0.00000000000000E+00   0.00000000000000E+00
      1.43348598977576E-20  -1.77037605146535E-33   1.43348598977559E-20  -5.56064749439485E-17   1.51786405190818E-02
      1.51786405006434E-02   0.00000000000000E+00   0.00000000000000E+00   6.90106566555966E-11   5.98761057761273E-34
      6.90106566555966E-11   4.20146901968108E-18
      3.97025437581081E-02
      0.00000000000000E+00   1.82974975346927E-11   0.00000000000000E+00   0.00000000000000E+00  -7.48141951525461E-11
      1.15065692340966E-33  -7.48141951525461E-11   4.89616464028093E-18   0.00000000000000E+00   0.00000000000000E+00
      0.00000000000000E+00   0.00000000000000E+00   0.00000000000000E+00   0.00000000000000E+00   0.00000000000000E+00
      4.64864352210505E-17   0.00000000000000E+00   0.00000000000000E+00   0.00000000000000E+00   0.00000000000000E+00
     -1.45970028651317E-20  -1.72216926554848E-33  -1.45970028651335E-20  -5.56062777893738E-17   1.70720938159865E-02
      1.70720937959978E-02   0.00000000000000E+00   0.00000000000000E+00   7.48141951671431E-11   5.71512342138823E-34
      7.48141951671431E-11   4.22367792804235E-18
      4.45169056293076E-02
      0.00000000000000E+00   1.97162638139712E-11   0.00000000000000E+00   0.00000000000000E+00  -8.06150779705454E-11
      1.14195623808813E-33  -8.06150779705454E-11   4.89616460375774E-18   0.00000000000000E+00   0.00000000000000E+00
      0.00000000000000E+00   0.00000000000000E+00   0.00000000000000E+00   0.00000000000000E+00   0.00000000000000E+00
      4.64619501282294E-17   0.00000000000000E+00   0.00000000000000E+00   0.00000000000000E+00   0.00000000000000E+00
     -2.64549285527421E-20  -1.65188066792159E-33  -2.64549285527438E-20  -5.56060853112258E-17   1.91422694206023E-02
      1.91422693990641E-02   0.00000000000000E+00   0.00000000000000E+00   8.06150779970003E-11   5.09924429833458E-34
      8.06150779970003E-11   4.24797057923872E-18
      4.97806079418192E-02
      0.00000000000000E+00   2.11212851750775E-11   0.00000000000000E+00   0.00000000000000E+00  -8.63597537798814E-11
      1.12131453717089E-33  -8.63597537798814E-11   4.89616456537300E-18   0.00000000000000E+00   0.00000000000000E+00
      0.00000000000000E+00   0.00000000000000E+00   0.00000000000000E+00   0.00000000000000E+00   0.00000000000000E+00
      4.64351936314310E-17   0.00000000000000E+00   0.00000000000000E+00   0.00000000000000E+00   0.00000000000000E+00
     -3.27963043717890E-20  -1.59423924849665E-33  -3.27963043717906E-20  -5.56059013966455E-17   2.14056614149822E-02
      2.14056613919097E-02   0.00000000000000E+00   0.00000000000000E+00   8.63597538126778E-11   4.72924711325760E-34
      8.63597538126778E-11   4.27454319984156E-18
      5.55355891368318E-02
      0.00000000000000E+00   2.24983256837446E-11   0.00000000000000E+00   0.00000000000000E+00  -9.19899485360451E-11
      1.11303644560028E-33  -9.19899485360451E-11   4.89616452509998E-18   0.00000000000000E+00   0.00000000000000E+00
      0.00000000000000E+00   0.00000000000000E+00   0.00000000000000E+00   0.00000000000000E+00   0.00000000000000E+00
      4.64059556164628E-17   0.00000000000000E+00   0.00000000000000E+00   0.00000000000000E+00   0.00000000000000E+00
     -3.41904343839433E-20  -1.56495269852612E-33  -3.41904343839448E-20  -5.56057307093933E-17   2.38803033288377E-02
      2.38803033042615E-02   0.00000000000000E+00   0.00000000000000E+00   9.19899485702355E-11   4.51916252925840E-34
      9.19899485702355E-11   4.30361056783055E-18
      6.18277019100455E-02
      0.00000000000000E+00   2.38322247764758E-11   0.00000000000000E+00   0.00000000000000E+00  -9.74437677002033E-11
      1.16768407352894E-33  -9.74437677002033E-11   4.89616448290645E-18   0.00000000000000E+00   0.00000000000000E+00
      0.00000000000000E+00   0.00000000000000E+00   0.00000000000000E+00   0.00000000000000E+00   0.00000000000000E+00
      4.63740065384205E-17   0.00000000000000E+00   0.00000000000000E+00   0.00000000000000E+00   0.00000000000000E+00
     -5.02873847448426E-20  -1.56251363558436E-33  -5.02873847448442E-20  -5.56055787857456E-17   2.65859118213196E-02
      2.65859117952870E-02   0.00000000000000E+00   0.00000000000000E+00   9.74437677504908E-11   3.94829562055425E-34
      9.74437677504908E-11   4.33540776441853E-18
      6.87070785420926E-02
      0.00000000000000E+00   2.51073556011089E-11   0.00000000000000E+00   0.00000000000000E+00  -1.02657268684345E-10
      1.19427133005368E-33  -1.02657268684345E-10   4.89616443874885E-18   0.00000000000000E+00   0.00000000000000E+00
      0.00000000000000E+00   0.00000000000000E+00   0.00000000000000E+00   0.00000000000000E+00   0.00000000000000E+00
      4.63390956062817E-17   0.00000000000000E+00   0.00000000000000E+00   0.00000000000000E+00   0.00000000000000E+00
      9.66893837825324E-21  -1.53992957101346E-33   9.66893837825170E-21  -5.56054521325873E-17   2.95440437730998E-02
      2.95440437456753E-02   0.00000000000000E+00   0.00000000000000E+00   1.02657268674677E-10   3.45658240959779E-34
      1.02657268674677E-10   4.37019208755670E-18
      7.62285303264640E-02
      0.00000000000000E+00   2.63080515649701E-11   0.00000000000000E+00   0.00000000000000E+00  -1.07566439474623E-10
      1.15419647508360E-33  -1.07566439474623E-10   4.89616439256508E-18   0.00000000000000E+00   0.00000000000000E+00
      0.00000000000000E+00   0.00000000000000E+00   0.00000000000000E+00   0.00000000000000E+00   0.00000000000000E+00
      4.63009487929667E-17   0.00000000000000E+00   0.00000000000000E+00   0.00000000000000E+00   0.00000000000000E+00
      1.63863127194821E-20  -1.46779216748770E-33   1.63863127194807E-20  -5.56053583264292E-17   3.27782680403795E-02
      3.27782680116444E-02   0.00000000000000E+00   0.00000000000000E+00   1.07566439458237E-10   3.13595692404097E-34
      1.07566439458237E-10   4.40824514089754E-18
      8.44519842773768E-02
      0.00000000000000E+00   2.74192271699731E-11   0.00000000000000E+00   0.00000000000000E+00  -1.12109574221853E-10
      1.18404114227331E-33  -1.12109574221853E-10   4.89616434426589E-18   0.00000000000000E+00   0.00000000000000E+00
      0.00000000000000E+00   0.00000000000000E+00   0.00000000000000E+00   0.00000000000000E+00   0.00000000000000E+00
      4.62592666535617E-17   0.00000000000000E+00   0.00000000000000E+00   0.00000000000000E+00   0.00000000000000E+00
     -8.15643005500291E-21  -1.47084352121708E-33  -8.15643005500438E-21  -5.56053061108022E-17   3.63143532392720E-02
      3.63143532093243E-02   0.00000000000000E+00   0.00000000000000E+00   1.12109574230010E-10   2.86802378943775E-34
      1.12109574230010E-10   4.44987511297474E-18
      9.34429605970415E-02
      0.00000000000000E+00   2.84270324063715E-11   0.00000000000000E+00   0.00000000000000E+00  -1.16230112603269E-10
      1.11917499462905E-33  -1.16230112603269E-10   4.89616429372459E-18   0.00000000000000E+00   0.00000000000000E+00
      0.00000000000000E+00   0.00000000000000E+00   0.00000000000000E+00   0.00000000000000E+00   0.00000000000000E+00
      4.62137219314519E-17   0.00000000000000E+00   0.00000000000000E+00   0.00000000000000E+00   0.00000000000000E+00
     -5.98223640882100E-20  -1.36721407056602E-33  -5.98223640882114E-20  -5.56053054874243E-17   4.01804730567278E-02
      4.01804730256805E-02   0.00000000000000E+00   0.00000000000000E+00   1.16230112663091E-10   2.48039075936970E-34
      1.16230112663091E-10   4.49541926224785E-18
      1.03273094706542E-01
      0.00000000000000E+00   2.93197111478027E-11   0.00000000000000E+00   0.00000000000000E+00  -1.19879863499024E-10
      1.14873504847684E-33  -1.19879863499024E-10   4.89616424076525E-18   0.00000000000000E+00   0.00000000000000E+00
      0.00000000000000E+00   0.00000000000000E+00   0.00000000000000E+00   0.00000000000000E+00   0.00000000000000E+00
      4.61639569314354E-17   0.00000000000000E+00   0.00000000000000E+00   0.00000000000000E+00   0.00000000000000E+00
      4.11905942085992E-21  -1.36529584360688E-33   4.11905942085856E-21  -5.56053677970490E-17   4.44074307238128E-02
      4.44074306917918E-02   0.00000000000000E+00   0.00000000000000E+00   1.19879863494904E-10   2.16560795130046E-34
      1.19879863494904E-10   4.54524662484832E-18
      1.13273094706541E-01
      0.00000000000000E+00   3.00410146745845E-11   0.00000000000000E+00   0.00000000000000E+00  -1.22828994584425E-10
      1.11513103802409E-33  -1.22828994584425E-10   4.89616418895073E-18   0.00000000000000E+00   0.00000000000000E+00
      0.00000000000000E+00   0.00000000000000E+00   0.00000000000000E+00   0.00000000000000E+00   0.00000000000000E+00
      4.61133620351709E-17   0.00000000000000E+00   0.00000000000000E+00   0.00000000000000E+00   0.00000000000000E+00
     -1.61690592593987E-20  -1.30424331778059E-33  -1.61690592594000E-20  -5.56054939423942E-17   4.87074307238128E-02
      4.87074306910055E-02   0.00000000000000E+00   0.00000000000000E+00   1.22828994600594E-10   1.89112279756503E-34
      1.22828994600594E-10   4.59596771827253E-18
      1.23273094706541E-01
      0.00000000000000E+00   3.06071571153239E-11   0.00000000000000E+00   0.00000000000000E+00  -1.25143701305180E-10
      1.15289379764863E-33  -1.25143701305180E-10   4.89616413885173E-18   0.00000000000000E+00   0.00000000000000E+00
      0.00000000000000E+00   0.00000000000000E+00   0.00000000000000E+00   0.00000000000000E+00   0.00000000000000E+00
      4.60627948817210E-17   0.00000000000000E+00   0.00000000000000E+00   0.00000000000000E+00   0.00000000000000E+00
     -8.14269450806083E-20  -1.31889967599417E-33  -8.14269450806096E-20  -5.56056788081232E-17   5.30074307238128E-02
      5.30074306903887E-02   0.00000000000000E+00   0.00000000000000E+00   1.25143701386607E-10   1.66005878345548E-34
      1.25143701386607E-10   4.64671978755034E-18
      1.33273094706542E-01
      0.00000000000000E+00   3.10463948566717E-11   0.00000000000000E+00   0.00000000000000E+00  -1.26939581905111E-10
      1.17953675839222E-33  -1.26939581905111E-10   4.89616409015755E-18   0.00000000000000E+00   0.00000000000000E+00
      0.00000000000000E+00   0.00000000000000E+00   0.00000000000000E+00   0.00000000000000E+00   0.00000000000000E+00
      4.60122531353650E-17   0.00000000000000E+00   0.00000000000000E+00   0.00000000000000E+00   0.00000000000000E+00
     -6.06014069193718E-21  -1.32390530689399E-33  -6.06014069193850E-21  -5.56059181552713E-17   5.73074307238128E-02
      5.73074306899107E-02   0.00000000000000E+00   0.00000000000000E+00   1.26939581911171E-10   1.44368548501769E-34
      1.26939581911171E-10   4.69750092974902E-18
      1.43273094706542E-01
      0.00000000000000E+00   3.13826525695480E-11   0.00000000000000E+00   0.00000000000000E+00  -1.28314380978915E-10
      1.09451146549257E-33  -1.28314380978915E-10   4.89616404260367E-18   0.00000000000000E+00   0.00000000000000E+00
      0.00000000000000E+00   0.00000000000000E+00   0.00000000000000E+00   0.00000000000000E+00   0.00000000000000E+00
      4.59617346776008E-17   0.00000000000000E+00   0.00000000000000E+00   0.00000000000000E+00   0.00000000000000E+00
      7.52693722408864E-21  -1.21723516600796E-33   7.52693722408742E-21  -5.56062080765902E-17   6.16074307238128E-02
      6.16074306895453E-02   0.00000000000000E+00   0.00000000000000E+00   1.28314380971388E-10   1.22723700515388E-34
      1.28314380971388E-10   4.74830935638564E-18
      1.53273094706542E-01
      0.00000000000000E+00   3.16360848750351E-11   0.00000000000000E+00   0.00000000000000E+00  -1.29350625937829E-10
      1.17126264383845E-33  -1.29350625937829E-10   4.89616399596553E-18   0.00000000000000E+00   0.00000000000000E+00
      0.00000000000000E+00   0.00000000000000E+00   0.00000000000000E+00   0.00000000000000E+00   0.00000000000000E+00
      4.59112375843973E-17   0.00000000000000E+00   0.00000000000000E+00   0.00000000000000E+00   0.00000000000000E+00
     -1.18313720543875E-20  -1.27925840954613E-33  -1.18313720543888E-20  -5.56065449669855E-17   6.59074307238128E-02
      6.59074306892706E-02   0.00000000000000E+00   0.00000000000000E+00   1.29350625949660E-10   1.07995765707687E-34
      1.29350625949660E-10   4.79914338662264E-18
      1.63273094706542E-01
      0.00000000000000E+00   3.18236812832713E-11   0.00000000000000E+00   0.00000000000000E+00  -1.30117661624767E-10
      1.13820080691630E-33  -1.30117661624767E-10   4.89616395005362E-18   0.00000000000000E+00   0.00000000000000E+00
      0.00000000000000E+00   0.00000000000000E+00   0.00000000000000E+00   0.00000000000000E+00   0.00000000000000E+00
      4.58607601081083E-17   0.00000000000000E+00   0.00000000000000E+00   0.00000000000000E+00   0.00000000000000E+00
      4.54045737456970E-20  -1.22832730111883E-33   4.54045737456958E-20  -5.56069254991744E-17   7.02074307238129E-02
      7.02074306890681E-02   0.00000000000000E+00   0.00000000000000E+00   1.30117661579363E-10   9.01264942025263E-35
      1.30117661579363E-10   4.85000144101239E-18
      1.73273094706542E-01
      0.00000000000000E+00   3.19595523251328E-11   0.00000000000000E+00   0.00000000000000E+00  -1.30673210237463E-10
      1.14338577448159E-33  -1.30673210237463E-10   4.89616390470966E-18   0.00000000000000E+00   0.00000000000000E+00
      0.00000000000000E+00   0.00000000000000E+00   0.00000000000000E+00   0.00000000000000E+00   0.00000000000000E+00
      4.58103006625281E-17   0.00000000000000E+00   0.00000000000000E+00   0.00000000000000E+00   0.00000000000000E+00
      4.65237139524484E-20  -1.22436016889097E-33   4.65237139524472E-20  -5.56073466027633E-17   7.45074307238129E-02
      7.45074306889225E-02   0.00000000000000E+00   0.00000000000000E+00   1.30673210190939E-10   8.09743944093802E-35
      1.30673210190939E-10   4.90088203552550E-18
      1.83273094706542E-01
      0.00000000000000E+00   3.20552783856098E-11   0.00000000000000E+00   0.00000000000000E+00  -1.31064604256990E-10
      1.15543038850304E-33  -1.31064604256990E-10   4.89616385980348E-18   0.00000000000000E+00   0.00000000000000E+00
      0.00000000000000E+00   0.00000000000000E+00   0.00000000000000E+00   0.00000000000000E+00   0.00000000000000E+00
      4.57598578098568E-17   0.00000000000000E+00   0.00000000000000E+00   0.00000000000000E+00   0.00000000000000E+00
     -2.35980410946315E-20  -1.22347801486237E-33  -2.35980410946327E-20  -5.56078054455197E-17   7.88074307238129E-02
      7.88074306888212E-02   0.00000000000000E+00   0.00000000000000E+00   1.31064604280588E-10   6.80476263593292E-35
      1.31064604280588E-10   4.95178377585953E-18
      1.93273094706542E-01
      0.00000000000000E+00   3.21200695489749E-11   0.00000000000000E+00   0.00000000000000E+00  -1.31329558245874E-10