DF-ISE text

Info {
  version   = 1.0
  type      = xyplot
  datasets  = [
    "time"
    "source OuterVoltage" "source InnerVoltage" "source QuasiFermiPotential" "source DisplacementCurrent" "source eCurrent"
    "source hCurrent" "source TotalCurrent" "source Charge" "gate OuterVoltage" "gate InnerVoltage"
    "gate QuasiFermiPotential" "gate DisplacementCurrent" "gate eCurrent" "gate hCurrent" "gate TotalCurrent"
    "gate Charge" "substrate OuterVoltage" "substrate InnerVoltage" "substrate QuasiFermiPotential" "substrate DisplacementCurrent"
    "substrate eCurrent" "substrate hCurrent" "substrate TotalCurrent" "substrate Charge" "drain OuterVoltage"
    "drain InnerVoltage" "drain QuasiFermiPotential" "drain DisplacementCurrent" "drain eCurrent" "drain hCurrent"
    "drain TotalCurrent" "drain Charge" ]
  functions = [
    Time
    OuterVoltage InnerVoltage QuasiFermiPotential DisplacementCurrent eCurrent
    hCurrent TotalCurrent Charge OuterVoltage InnerVoltage
    QuasiFermiPotential DisplacementCurrent eCurrent hCurrent TotalCurrent
    Charge OuterVoltage InnerVoltage QuasiFermiPotential DisplacementCurrent
    eCurrent hCurrent TotalCurrent Charge OuterVoltage
    InnerVoltage QuasiFermiPotential DisplacementCurrent eCurrent hCurrent
    TotalCurrent Charge ]
}

Data {
      0.00000000000000E+00
      0.00000000000000E+00   0.00000000000000E+00   0.00000000000000E+00   0.00000000000000E+00   1.29968067273696E-21
      5.94588519273015E-34   1.29968067273756E-21   4.56678044482401E-18   0.00000000000000E+00   0.00000000000000E+00
      0.00000000000000E+00   0.00000000000000E+00   0.00000000000000E+00   0.00000000000000E+00   0.00000000000000E+00
      3.25026663792296E-18   0.00000000000000E+00   0.00000000000000E+00   0.00000000000000E+00   0.00000000000000E+00
      1.33827932332851E-22  -1.14606594941490E-33   1.33827932331705E-22  -1.15708030968927E-17   0.00000000000000E+00
      0.00000000000000E+00   0.00000000000000E+00   0.00000000000000E+00  -1.43350860506982E-21   5.51477430141888E-34
     -1.43350860506926E-21   3.75375601414571E-18
      0.00000000000000E+00
      0.00000000000000E+00   0.00000000000000E+00   0.00000000000000E+00   0.00000000000000E+00  -2.92927711165886E-20
      5.92217449176336E-34  -2.92927711165881E-20   4.56501471339818E-18   0.00000000000000E+00   0.00000000000000E+00
      0.00000000000000E+00   0.00000000000000E+00   0.00000000000000E+00   0.00000000000000E+00   0.00000000000000E+00
      3.24429225010960E-18   0.00000000000000E+00   0.00000000000000E+00   0.00000000000000E+00   0.00000000000000E+00
      6.24014210332518E-20  -1.11579524866808E-33   6.24014210332506E-20  -1.15618118761675E-17   0.00000000000000E+00
      0.00000000000000E+00   0.00000000000000E+00   0.00000000000000E+00  -3.31086499166631E-20   5.23577799491749E-34
     -3.31086499166626E-20   3.75250491265971E-18
      1.00000000000000E-03
      0.00000000000000E+00   3.29984708493827E-11   0.00000000000000E+00   0.00000000000000E+00  -1.39832026133034E-10
      5.83630695698672E-34  -1.39832026133034E-10   4.56474081334291E-18   0.00000000000000E+00   0.00000000000000E+00
      0.00000000000000E+00   0.00000000000000E+00   0.00000000000000E+00   0.00000000000000E+00   0.00000000000000E+00
      3.23476885450689E-18   0.00000000000000E+00   0.00000000000000E+00   0.00000000000000E+00   0.00000000000000E+00
     -1.96071690387213E-20  -1.10584973318686E-33  -1.96071690387224E-20  -1.15614919312026E-17   8.60000000000000E-04
      8.59999966570179E-04   0.00000000000000E+00   0.00000000000000E+00   1.39832026152641E-10   5.22219037488187E-34
      1.39832026152641E-10   3.76198226335281E-18
      2.08666666666667E-03
      0.00000000000000E+00   6.67521112061475E-11   0.00000000000000E+00   0.00000000000000E+00  -2.82849238926204E-10
      5.62690781989057E-34  -2.82849238926204E-10   4.56444324074598E-18   0.00000000000000E+00   0.00000000000000E+00
      0.00000000000000E+00   0.00000000000000E+00   0.00000000000000E+00   0.00000000000000E+00   0.00000000000000E+00
      3.22442278665846E-18   0.00000000000000E+00   0.00000000000000E+00   0.00000000000000E+00   0.00000000000000E+00
      5.89892387109490E-16  -1.08401437492661E-33   5.89892387109490E-16  -1.15611504453937E-17   1.79453333333333E-03
      1.79453326570881E-03   0.00000000000000E+00   0.00000000000000E+00   2.82848649033817E-10   5.21323592937556E-34
      2.82848649033817E-10   3.77228441798933E-18
      3.28200000000000E-03
      0.00000000000000E+00   1.01390109524402E-10   0.00000000000000E+00   0.00000000000000E+00  -4.29592489279595E-10
      5.14661765503156E-34  -4.29592489279595E-10   4.56411598874901E-18   0.00000000000000E+00   0.00000000000000E+00
      0.00000000000000E+00   0.00000000000000E+00   0.00000000000000E+00   0.00000000000000E+00   0.00000000000000E+00
      3.21304529491073E-18   0.00000000000000E+00   0.00000000000000E+00   0.00000000000000E+00   0.00000000000000E+00
     -6.99212239530381E-21  -1.01641351750810E-33  -6.99212239530482E-21  -1.15607821558729E-17   2.82252000000000E-03
      2.82251989728571E-03   0.00000000000000E+00   0.00000000000000E+00   4.29592489286587E-10   5.01751752004946E-34
      4.29592489286587E-10   3.78362087221320E-18
      4.58889777777778E-03
      0.00000000000000E+00   1.36402989800018E-10   0.00000000000000E+00   0.00000000000000E+00  -5.77900553847930E-10
      5.78980126543725E-34  -5.77900553847930E-10   4.56375828508318E-18   0.00000000000000E+00   0.00000000000000E+00
      0.00000000000000E+00   0.00000000000000E+00   0.00000000000000E+00   0.00000000000000E+00   0.00000000000000E+00
      3.20060965357891E-18   0.00000000000000E+00   0.00000000000000E+00   0.00000000000000E+00   0.00000000000000E+00
     -2.56286823166951E-20  -1.05207967060504E-33  -2.56286823166961E-20  -1.15603881710033E-17   3.94645208888889E-03
      3.94645195070508E-03   0.00000000000000E+00   0.00000000000000E+00   5.77900553873558E-10   4.73099544061318E-34
      5.77900553873558E-10   3.79602023234119E-18
      6.01777268148148E-03
      0.00000000000000E+00   1.71464244875345E-10   0.00000000000000E+00   0.00000000000000E+00  -7.26387242329067E-10
      5.78015436344875E-34  -7.26387242329067E-10   4.56336730341586E-18   0.00000000000000E+00   0.00000000000000E+00
      0.00000000000000E+00   0.00000000000000E+00   0.00000000000000E+00   0.00000000000000E+00   0.00000000000000E+00
      3.18701774955105E-18   0.00000000000000E+00   0.00000000000000E+00   0.00000000000000E+00   0.00000000000000E+00
     -1.37064027213838E-20  -1.04347139357971E-33  -1.37064027213848E-20  -1.15599676244845E-17   5.17528450607408E-03
      5.17528433237201E-03   0.00000000000000E+00   0.00000000000000E+00   7.26387242342774E-10   4.65455957234838E-34
      7.26387242342774E-10   3.80958257151759E-18
      7.58000924286420E-03
      0.00000000000000E+00   2.06217814782293E-10   0.00000000000000E+00   0.00000000000000E+00  -8.73542799678930E-10
      5.24568238973985E-34  -8.73542799678930E-10   4.56293995596672E-18   0.00000000000000E+00   0.00000000000000E+00
      0.00000000000000E+00   0.00000000000000E+00   0.00000000000000E+00   0.00000000000000E+00   0.00000000000000E+00
      3.17216241509557E-18   0.00000000000000E+00   0.00000000000000E+00   0.00000000000000E+00   0.00000000000000E+00
     -2.56515926293159E-20  -9.74405452348552E-34  -2.56515926293169E-20  -1.15595198219398E-17   6.51880794886321E-03
      6.51880773995484E-03   0.00000000000000E+00   0.00000000000000E+00   8.73542799704582E-10   4.49837213374567E-34
      8.73542799704582E-10   3.82441745087754E-18
      9.28805454997597E-03
      0.00000000000000E+00   2.40282520017143E-10   0.00000000000000E+00   0.00000000000000E+00  -1.01775294163353E-09
      5.72512532374412E-34  -1.01775294163353E-09   4.56247286937575E-18   0.00000000000000E+00   0.00000000000000E+00
      0.00000000000000E+00   0.00000000000000E+00   0.00000000000000E+00   0.00000000000000E+00   0.00000000000000E+00
      3.15592659650363E-18   0.00000000000000E+00   0.00000000000000E+00   0.00000000000000E+00   0.00000000000000E+00
      7.95592184403726E-21  -1.00924501857456E-33   7.95592184403625E-21  -1.15590442938772E-17   7.98772691297934E-03
      7.98772666956265E-03   0.00000000000000E+00   0.00000000000000E+00   1.01775294162557E-09   4.36732486200149E-34
      1.01775294162557E-09   3.84064482799780E-18
      1.11555174190848E-02
      0.00000000000000E+00   2.73260767361890E-10   0.00000000000000E+00   0.00000000000000E+00  -1.15733592216981E-09
      5.68520842448279E-34  -1.15733592216981E-09   4.56196235828962E-18   0.00000000000000E+00   0.00000000000000E+00
      0.00000000000000E+00   0.00000000000000E+00   0.00000000000000E+00   0.00000000000000E+00   0.00000000000000E+00
      3.13818244523830E-18   0.00000000000000E+00   0.00000000000000E+00   0.00000000000000E+00   0.00000000000000E+00
     -2.75135954587320E-20  -9.86679094087937E-34  -2.75135954587330E-20  -1.15585408559243E-17   9.59374498041296E-03
      9.59374470358881E-03   0.00000000000000E+00   0.00000000000000E+00   1.15733592219732E-09   4.18158251639658E-34
      1.15733592219732E-09   3.85839605239636E-18
      1.31972768226439E-02
      0.00000000000000E+00   3.04750246841403E-10   0.00000000000000E+00   0.00000000000000E+00  -1.29059285422612E-09
      5.69260752970911E-34  -1.29059285422612E-09   4.56140439650539E-18   0.00000000000000E+00   0.00000000000000E+00
      0.00000000000000E+00   0.00000000000000E+00   0.00000000000000E+00   0.00000000000000E+00   0.00000000000000E+00
      3.11879032618437E-18   0.00000000000000E+00   0.00000000000000E+00   0.00000000000000E+00   0.00000000000000E+00
     -3.10650551326913E-21  -9.63531501991501E-34  -3.10650551327009E-21  -1.15580096802729E-17   1.13496580674737E-02
      1.13496577587505E-02   0.00000000000000E+00   0.00000000000000E+00   1.29059285422923E-09   3.94270749020590E-34
      1.29059285422923E-09   3.87781495758310E-18
      1.54296004372017E-02
      0.00000000000000E+00   3.34359629225378E-10   0.00000000000000E+00   0.00000000000000E+00  -1.41587409881383E-09
      5.56727073091324E-34  -1.41587409881383E-09   4.56079458535724E-18   0.00000000000000E+00   0.00000000000000E+00
      0.00000000000000E+00   0.00000000000000E+00   0.00000000000000E+00   0.00000000000000E+00   0.00000000000000E+00
      3.09759773285380E-18   0.00000000000000E+00   0.00000000000000E+00   0.00000000000000E+00   0.00000000000000E+00
     -4.43598955711434E-20  -9.15863322485267E-34  -4.43598955711443E-20  -1.15574513757865E-17   1.32694563759935E-02
      1.32694560372759E-02   0.00000000000000E+00   0.00000000000000E+00   1.41587409885819E-09   3.59136249393943E-34
      1.41587409885819E-09   3.89905905757550E-18
      1.78702742557850E-02
      0.00000000000000E+00   3.61727088639098E-10   0.00000000000000E+00   0.00000000000000E+00  -1.53165859999657E-09
      5.62100438244759E-34  -1.53165859999657E-09   4.56012811911701E-18   0.00000000000000E+00   0.00000000000000E+00
      0.00000000000000E+00   0.00000000000000E+00   0.00000000000000E+00   0.00000000000000E+00   0.00000000000000E+00
      3.07443810168277E-18   0.00000000000000E+00   0.00000000000000E+00   0.00000000000000E+00   0.00000000000000E+00
     -3.59267162533351E-20  -9.00457623849097E-34  -3.59267162533360E-20  -1.15568670789862E-17   1.53684358599751E-02
      1.53684354935341E-02   0.00000000000000E+00   0.00000000000000E+00   1.53165860003249E-09   3.38357185604337E-34
      1.53165860003249E-09   3.92230085818642E-18
      2.05387442974361E-02
      0.00000000000000E+00   3.86542168675861E-10   0.00000000000000E+00   0.00000000000000E+00  -1.63664639015816E-09
      5.71361924307997E-34  -1.63664639015816E-09   4.55939974706501E-18   0.00000000000000E+00   0.00000000000000E+00
      0.00000000000000E+00   0.00000000000000E+00   0.00000000000000E+00   0.00000000000000E+00   0.00000000000000E+00
      3.04912951402207E-18   0.00000000000000E+00   0.00000000000000E+00   0.00000000000000E+00   0.00000000000000E+00
      9.24481457018407E-21  -8.79941798241291E-34   9.24481457018319E-21  -1.15562585543000E-17   1.76633200957950E-02
      1.76633197042166E-02   0.00000000000000E+00   0.00000000000000E+00   1.63664639014892E-09   3.08579873933294E-34
      1.63664639014892E-09   3.94772929321290E-18
      2.34562715429746E-02
      0.00000000000000E+00   4.08569732678456E-10   0.00000000000000E+00   0.00000000000000E+00  -1.72986026875008E-09
      5.58789178851620E-34  -1.72986026875008E-09   4.55860373193741E-18   0.00000000000000E+00   0.00000000000000E+00
      0.00000000000000E+00   0.00000000000000E+00   0.00000000000000E+00   0.00000000000000E+00   0.00000000000000E+00
      3.02147327567621E-18   0.00000000000000E+00   0.00000000000000E+00   0.00000000000000E+00   0.00000000000000E+00
     -6.07152422980040E-20  -8.33333010138066E-34  -6.07152422980048E-20  -1.15556283049365E-17   2.01723935269581E-02
      2.01723931130669E-02   0.00000000000000E+00   0.00000000000000E+00   1.72986026881080E-09   2.74543831286446E-34
      1.72986026881080E-09   3.97555129732289E-18
      2.66461013314300E-02
      0.00000000000000E+00   4.27674829818639E-10   0.00000000000000E+00   0.00000000000000E+00  -1.81075070194165E-09
      5.81055262903759E-34  -1.81075070194165E-09   4.55773380433032E-18   0.00000000000000E+00   0.00000000000000E+00
      0.00000000000000E+00   0.00000000000000E+00   0.00000000000000E+00   0.00000000000000E+00   0.00000000000000E+00
      2.99125235977372E-18   0.00000000000000E+00   0.00000000000000E+00   0.00000000000000E+00   0.00000000000000E+00
     -4.10484755710594E-20  -8.39292138796887E-34  -4.10484755710602E-20  -1.15549796915695E-17   2.29156471450298E-02
      2.29156467117875E-02   0.00000000000000E+00   0.00000000000000E+00   1.81075070198270E-09   2.58236875893128E-34
      1.81075070198270E-09   4.00599352746551E-18
      3.01336485668079E-02
      0.00000000000000E+00   4.43845990984852E-10   0.00000000000000E+00   0.00000000000000E+00  -1.87929413811108E-09
      5.36920444739387E-34  -1.87929413811108E-09   4.55678311270016E-18   0.00000000000000E+00   0.00000000000000E+00
      0.00000000000000E+00   0.00000000000000E+00   0.00000000000000E+00   0.00000000000000E+00   0.00000000000000E+00
      2.95822970083737E-18   0.00000000000000E+00   0.00000000000000E+00   0.00000000000000E+00   0.00000000000000E+00
     -2.94493608237758E-20  -7.71773619865609E-34  -2.94493608237766E-20  -1.15543170598309E-17   2.59149377674548E-02
      2.59149373178353E-02   0.00000000000000E+00   0.00000000000000E+00   1.87929413814053E-09   2.34853175126223E-34
      1.87929413814053E-09   4.03930424629338E-18
      3.39467002108211E-02
      0.00000000000000E+00   4.57214740490142E-10   0.00000000000000E+00   0.00000000000000E+00  -1.93607452919405E-09
      5.59388685787505E-34  -1.93607452919405E-09   4.55574416853865E-18   0.00000000000000E+00   0.00000000000000E+00
      0.00000000000000E+00   0.00000000000000E+00   0.00000000000000E+00   0.00000000000000E+00   0.00000000000000E+00
      2.92214632230604E-18   0.00000000000000E+00   0.00000000000000E+00   0.00000000000000E+00   0.00000000000000E+00
     -8.23486623010929E-20  -7.64461313184257E-34  -8.23486623010937E-20  -1.15536458723002E-17   2.91941621813061E-02
      2.91941617181515E-02   0.00000000000000E+00   0.00000000000000E+00   1.93607452927640E-09   2.05072627396751E-34
      1.93607452927640E-09   4.07575538145551E-18
      3.81156366749421E-02
      0.00000000000000E+00   4.68065965696246E-10   0.00000000000000E+00   0.00000000000000E+00  -1.98232541049618E-09
      5.80031951633213E-34  -1.98232541049618E-09   4.55460878621255E-18   0.00000000000000E+00   0.00000000000000E+00
      0.00000000000000E+00   0.00000000000000E+00   0.00000000000000E+00   0.00000000000000E+00   0.00000000000000E+00
      2.88271927760438E-18   0.00000000000000E+00   0.00000000000000E+00   0.00000000000000E+00   0.00000000000000E+00
     -8.05107864942018E-20  -7.76236106579012E-34  -8.05107864942025E-20  -1.15529728373088E-17   3.27794475404502E-02
      3.27794470663160E-02   0.00000000000000E+00   0.00000000000000E+00   1.98232541057669E-09   1.96204154945799E-34
      1.98232541057669E-09   4.11564477349188E-18
      4.26736738757145E-02
      0.00000000000000E+00   4.76832432823027E-10   0.00000000000000E+00   0.00000000000000E+00  -2.01990358081490E-09
      5.73773178565340E-34  -2.01990358081490E-09   4.55336801724955E-18   0.00000000000000E+00   0.00000000000000E+00
      0.00000000000000E+00   0.00000000000000E+00   0.00000000000000E+00   0.00000000000000E+00   0.00000000000000E+00
      2.83963938922859E-18   0.00000000000000E+00   0.00000000000000E+00   0.00000000000000E+00   0.00000000000000E+00
     -1.32870109883562E-19  -7.35423493983942E-34  -1.32870109883563E-19  -1.15523060376214E-17   3.66993595331145E-02
      3.66993590501199E-02   0.00000000000000E+00   0.00000000000000E+00   2.01990358094777E-09   1.61650315418602E-34
      2.01990358094777E-09   4.15929863114327E-18
      4.76571278818923E-02
      0.00000000000000E+00   4.84066094299328E-10   0.00000000000000E+00   0.00000000000000E+00  -2.05116462647212E-09
      5.40122785351514E-34  -2.05116462647212E-09   4.55201207859482E-18   0.00000000000000E+00   0.00000000000000E+00
      0.00000000000000E+00   0.00000000000000E+00   0.00000000000000E+00   0.00000000000000E+00   0.00000000000000E+00
      2.79256876639086E-18   0.00000000000000E+00   0.00000000000000E+00   0.00000000000000E+00   0.00000000000000E+00
     -2.82085155029198E-19  -6.82356464160724E-34  -2.82085155029199E-19  -1.15516550535198E-17   4.09851299784274E-02
      4.09851294881363E-02   0.00000000000000E+00   0.00000000000000E+00   2.05116462675420E-09   1.42233678809210E-34
      2.05116462675420E-09   4.20707420853413E-18
      5.31057042619801E-02
      0.00000000000000E+00   4.90385606560630E-10   0.00000000000000E+00   0.00000000000000E+00  -2.07874003757849E-09
      5.99836326591455E-34  -2.07874003757849E-09   4.55053027475601E-18   0.00000000000000E+00   0.00000000000000E+00
      0.00000000000000E+00   0.00000000000000E+00   0.00000000000000E+00   0.00000000000000E+00   0.00000000000000E+00
      2.74113808459792E-18   0.00000000000000E+00   0.00000000000000E+00   0.00000000000000E+00   0.00000000000000E+00
     -4.26195562309581E-19  -7.23021106382677E-34  -4.26195562309582E-19  -1.15510310816276E-17   4.56709056653029E-02
      4.56709051686561E-02   0.00000000000000E+00   0.00000000000000E+00   2.07874003800469E-09   1.23184779791222E-34
      2.07874003800469E-09   4.25936272227366E-18
      5.90628144375427E-02
      0.00000000000000E+00   4.96401736226242E-10   0.00000000000000E+00   0.00000000000000E+00  -2.10522091124262E-09
      5.74972581960698E-34  -2.10522091124262E-09   4.54891091386613E-18   0.00000000000000E+00   0.00000000000000E+00
      0.00000000000000E+00   0.00000000000000E+00   0.00000000000000E+00   0.00000000000000E+00   0.00000000000000E+00
      2.68494361703962E-18   0.00000000000000E+00   0.00000000000000E+00   0.00000000000000E+00   0.00000000000000E+00
      4.94878647976188E-21  -6.74755266838966E-34   4.94878647976120E-21  -1.15504470589098E-17   5.07940204162867E-02
      5.07940199136111E-02   0.00000000000000E+00   0.00000000000000E+00   2.10522091123767E-09   9.97826848782686E-35
      2.10522091123767E-09   4.31659252800409E-18
      6.55362074949873E-02
      0.00000000000000E+00   5.02582207919127E-10   0.00000000000000E+00   0.00000000000000E+00  -2.13257375294163E-09
      5.40030354967562E-34  -2.13257375294163E-09   4.54715200598473E-18   0.00000000000000E+00   0.00000000000000E+00
      0.00000000000000E+00   0.00000000000000E+00   0.00000000000000E+00   0.00000000000000E+00   0.00000000000000E+00
      2.62391827920630E-18   0.00000000000000E+00   0.00000000000000E+00   0.00000000000000E+00   0.00000000000000E+00
     -6.55302540911742E-21  -6.26826860845802E-34  -6.55302540911805E-21  -1.15499207026627E-17   5.63611384456891E-02
      5.63611379368394E-02   0.00000000000000E+00   0.00000000000000E+00   2.13257375294818E-09   8.67965058782393E-35
      2.13257375294818E-09   4.37885041747172E-18
      7.25706279507439E-02
      0.00000000000000E+00   5.09255611199727E-10   0.00000000000000E+00   0.00000000000000E+00  -2.16217070421021E-09
      5.82126929702457E-34  -2.16217070421021E-09   4.54524151303616E-18   0.00000000000000E+00   0.00000000000000E+00
      0.00000000000000E+00   0.00000000000000E+00   0.00000000000000E+00   0.00000000000000E+00   0.00000000000000E+00
      2.55764617964539E-18   0.00000000000000E+00   0.00000000000000E+00   0.00000000000000E+00   0.00000000000000E+00
     -2.04156224272606E-20  -6.50787014484994E-34  -2.04156224272613E-20  -1.15494672264616E-17   6.24107400376398E-02
      6.24107395221396E-02   0.00000000000000E+00   0.00000000000000E+00   2.16217070423063E-09   6.86600847825377E-35
      2.16217070423063E-09   4.44657953378000E-18
      8.02146981793327E-02
      0.00000000000000E+00   5.16611273396325E-10   0.00000000000000E+00   0.00000000000000E+00  -2.19481345017069E-09
      5.86350631205010E-34  -2.19481345017069E-09   4.54316635807029E-18   0.00000000000000E+00   0.00000000000000E+00
      0.00000000000000E+00   0.00000000000000E+00   0.00000000000000E+00   0.00000000000000E+00   0.00000000000000E+00
      2.48567536259446E-18   0.00000000000000E+00   0.00000000000000E+00   0.00000000000000E+00   0.00000000000000E+00
     -1.11710203906231E-20  -6.39584765361212E-34  -1.11710203906237E-20  -1.15491035186506E-17   6.89846404342261E-02
      6.89846399114092E-02   0.00000000000000E+00   0.00000000000000E+00   2.19481345018186E-09   5.32341341562017E-35
      2.19481345018186E-09   4.52026179798589E-18
      8.85212544943992E-02
      0.00000000000000E+00   5.24755830664433E-10   0.00000000000000E+00   0.00000000000000E+00  -2.23096872708223E-09
      5.34268036940465E-34  -2.23096872708223E-09   4.54091233814027E-18   0.00000000000000E+00   0.00000000000000E+00
      0.00000000000000E+00   0.00000000000000E+00   0.00000000000000E+00   0.00000000000000E+00   0.00000000000000E+00
      2.40751473582953E-18   0.00000000000000E+00   0.00000000000000E+00   0.00000000000000E+00   0.00000000000000E+00
      2.91735333582538E-22  -5.78070443859712E-34   2.91735333581960E-22  -1.15488482785675E-17   7.61282788651833E-02
      7.61282783342750E-02   0.00000000000000E+00   0.00000000000000E+00   2.23096872708194E-09   4.38024069192469E-35
      2.23096872708194E-09   4.60042120459768E-18
      9.75477123567714E-02
      0.00000000000000E+00   5.33717188791080E-10   0.00000000000000E+00   0.00000000000000E+00  -2.27076777337351E-09
      5.62519764521710E-34  -2.27076777337351E-09   4.53846403197866E-18   0.00000000000000E+00   0.00000000000000E+00
      0.00000000000000E+00   0.00000000000000E+00   0.00000000000000E+00   0.00000000000000E+00   0.00000000000000E+00
      2.32263074509530E-18   0.00000000000000E+00   0.00000000000000E+00   0.00000000000000E+00   0.00000000000000E+00
     -1.58947052686393E-21  -5.96720177893898E-34  -1.58947052686453E-21  -1.15487221520221E-17   8.38910326268234E-02
      8.38910320870109E-02   0.00000000000000E+00   0.00000000000000E+00   2.27076777337510E-09   3.42004133721874E-35
      2.27076777337510E-09   4.68762737494815E-18
      1.07356463233883E-01
      0.00000000000000E+00   5.43504707991357E-10   0.00000000000000E+00   0.00000000000000E+00  -2.31428029266768E-09
      5.56859829062810E-34  -2.31428029266768E-09   4.53580468768788E-18   0.00000000000000E+00   0.00000000000000E+00
      0.00000000000000E+00   0.00000000000000E+00   0.00000000000000E+00   0.00000000000000E+00   0.00000000000000E+00
      2.23044360115515E-18   0.00000000000000E+00   0.00000000000000E+00   0.00000000000000E+00   0.00000000000000E+00
     -1.95488820484516E-20  -5.82080634598550E-34  -1.95488820484522E-20  -1.15487476682980E-17   9.23265583811390E-02
      9.23265578316015E-02   0.00000000000000E+00   0.00000000000000E+00   2.31428029268722E-09   2.52208055357396E-35
      2.31428029268722E-09   4.78249937945500E-18
      1.17356463233883E-01
      0.00000000000000E+00   5.53524276452680E-10   0.00000000000000E+00   0.00000000000000E+00  -2.35888856859969E-09
      5.77388481364468E-34  -2.35888856859969E-09   4.53309461119973E-18   0.00000000000000E+00   0.00000000000000E+00
      0.00000000000000E+00   0.00000000000000E+00   0.00000000000000E+00   0.00000000000000E+00   0.00000000000000E+00
      2.13651010278307E-18   0.00000000000000E+00   0.00000000000000E+00   0.00000000000000E+00   0.00000000000000E+00
      9.83045700871567E-21  -5.95990165751540E-34   9.83045700871507E-21  -1.15489316383518E-17   1.00926558381139E-01
      1.00926557821657E-01   0.00000000000000E+00   0.00000000000000E+00   2.35888856858986E-09   1.86016843870716E-35
      2.35888856858986E-09   4.87932692436902E-18
      1.27356463233883E-01
      0.00000000000000E+00   5.63611395835095E-10   0.00000000000000E+00   0.00000000000000E+00  -2.40386113707718E-09
      5.50285135972108E-34  -2.40386113707718E-09   4.53038556129976E-18   0.00000000000000E+00   0.00000000000000E+00
      0.00000000000000E+00   0.00000000000000E+00   0.00000000000000E+00   0.00000000000000E+00   0.00000000000000E+00
      2.04262255480229E-18   0.00000000000000E+00   0.00000000000000E+00   0.00000000000000E+00   0.00000000000000E+00
     -2.01548419796358E-21  -5.64102657522895E-34  -2.01548419796415E-21  -1.15492598791797E-17   1.09526558381139E-01
      1.09526557811660E-01   0.00000000000000E+00   0.00000000000000E+00   2.40386113707920E-09   1.38175215507873E-35
      2.40386113707920E-09   4.97625176307767E-18
      1.37356463233883E-01
      0.00000000000000E+00   5.73791102660719E-10   0.00000000000000E+00   0.00000000000000E+00  -2.44930343531813E-09
      5.62015808707280E-34  -2.44930343531813E-09   4.52767745266130E-18   0.00000000000000E+00   0.00000000000000E+00
      0.00000000000000E+00   0.00000000000000E+00   0.00000000000000E+00   0.00000000000000E+00   0.00000000000000E+00
      1.94877615588594E-18   0.00000000000000E+00   0.00000000000000E+00   0.00000000000000E+00   0.00000000000000E+00
      5.10427352203021E-21  -5.72293894121276E-34   5.10427352202963E-21  -1.15497188990540E-17   1.18126558381139E-01
      1.18126557801580E-01   0.00000000000000E+00   0.00000000000000E+00   2.44930343531302E-09   1.02780854139959E-35
      2.44930343531302E-09   5.07326529050681E-18
      1.47356463233883E-01
      0.00000000000000E+00   5.84078784455522E-10   0.00000000000000E+00   0.00000000000000E+00  -2.49527996161530E-09
      5.69997037464600E-34  -2.49527996161530E-09   4.52497021277837E-18   0.00000000000000E+00   0.00000000000000E+00
      0.00000000000000E+00   0.00000000000000E+00   0.00000000000000E+00   0.00000000000000E+00   0.00000000000000E+00
      1.85496678106783E-18   0.00000000000000E+00   0.00000000000000E+00   0.00000000000000E+00   0.00000000000000E+00
     -1.91847209973894E-20  -5.77860100968301E-34  -1.91847209973899E-20  -1.15502967151887E-17   1.26726558381139E-01
      1.26726557791393E-01   0.00000000000000E+00   0.00000000000000E+00   2.49527996163448E-09   7.86306350370108E-36
      2.49527996163448E-09   5.17035972134254E-18
      1.57356463233883E-01
      0.00000000000000E+00   5.94481020481929E-10   0.00000000000000E+00   0.00000000000000E+00  -2.54181775410074E-09
      5.34525312213900E-34  -2.54181775410074E-09   4.52226377655045E-18   0.00000000000000E+00   0.00000000000000E+00
      0.00000000000000E+00   0.00000000000000E+00   0.00000000000000E+00   0.00000000000000E+00   0.00000000000000E+00
      1.76119082044377E-18   0.00000000000000E+00   0.00000000000000E+00   0.00000000000000E+00   0.00000000000000E+00
     -9.23464689387681E-21  -5.40203622010281E-34  -9.23464689387735E-21  -1.15509825898290E-17   1.35326558381139E-01
      1.35326557781090E-01   0.00000000000000E+00   0.00000000000000E+00   2.54181775410997E-09   5.67830979638121E-36
      2.54181775410997E-09   5.26752799283478E-18
      1.67356463233883E-01
      0.00000000000000E+00   6.04999001189035E-10   0.00000000000000E+00   0.00000000000000E+00  -2.58892086209207E-09
      5.48980860176305E-34  -2.58892086209207E-09   4.51955808478611E-18   0.00000000000000E+00   0.00000000000000E+00
      0.00000000000000E+00   0.00000000000000E+00   0.00000000000000E+00   0.00000000000000E+00   0.00000000000000E+00
      1.66744509832381E-18   0.00000000000000E+00   0.00000000000000E+00   0.00000000000000E+00   0.00000000000000E+00
     -1.55364487209799E-20  -5.53415605920240E-34  -1.55364487209804E-20  -1.15517668682337E-17   1.43926558381139E-01
      1.43926557770667E-01   0.00000000000000E+00   0.00000000000000E+00   2.58892086210760E-09   4.43474574393505E-36
      2.58892086210760E-09   5.36476368512372E-18
      1.77356463233883E-01
      0.00000000000000E+00   6.15631482257275E-10   0.00000000000000E+00   0.00000000000000E+00  -2.63658331224670E-09
      5.62600573357359E-34  -2.63658331224670E-09   4.51685308349854E-18   0.00000000000000E+00   0.00000000000000E+00
      0.00000000000000E+00   0.00000000000000E+00   0.00000000000000E+00   0.00000000000000E+00   0.00000000000000E+00
      1.57372680707304E-18   0.00000000000000E+00   0.00000000000000E+00   0.00000000000000E+00   0.00000000000000E+00
      5.38737356403614E-21  -5.66109760326998E-34   5.38737356403558E-21  -1.15526408447334E-17   1.52526558381139E-01
      1.52526557760126E-01   0.00000000000000E+00   0.00000000000000E+00   2.63658331224131E-09   3.50918696963856E-36
      2.63658331224131E-09   5.46206095416181E-18
      1.87356463233883E-01
      0.00000000000000E+00   6.26376602947597E-10   0.00000000000000E+00   0.00000000000000E+00  -2.68479741276614E-09