DF-ISE text

Info {
  version   = 1.0
  type      = xyplot
  datasets  = [
    "time"
    "source OuterVoltage" "source InnerVoltage" "source QuasiFermiPotential" "source DisplacementCurrent" "source eCurrent"
    "source hCurrent" "source TotalCurrent" "source Charge" "gate OuterVoltage" "gate InnerVoltage"
    "gate QuasiFermiPotential" "gate DisplacementCurrent" "gate eCurrent" "gate hCurrent" "gate TotalCurrent"
    "gate Charge" "substrate OuterVoltage" "substrate InnerVoltage" "substrate QuasiFermiPotential" "substrate DisplacementCurrent"
    "substrate eCurrent" "substrate hCurrent" "substrate TotalCurrent" "substrate Charge" "drain OuterVoltage"
    "drain InnerVoltage" "drain QuasiFermiPotential" "drain DisplacementCurrent" "drain eCurrent" "drain hCurrent"
    "drain TotalCurrent" "drain Charge" ]
  functions = [
    Time
    OuterVoltage InnerVoltage QuasiFermiPotential DisplacementCurrent eCurrent
    hCurrent TotalCurrent Charge OuterVoltage InnerVoltage
    QuasiFermiPotential DisplacementCurrent eCurrent hCurrent TotalCurrent
    Charge OuterVoltage InnerVoltage QuasiFermiPotential DisplacementCurrent
    eCurrent hCurrent TotalCurrent Charge OuterVoltage
    InnerVoltage QuasiFermiPotential DisplacementCurrent eCurrent hCurrent
    TotalCurrent Charge ]
}

Data {
      0.00000000000000E+00
      0.00000000000000E+00   0.00000000000000E+00   0.00000000000000E+00   0.00000000000000E+00   1.29968067273696E-21
      5.86897071941820E-34   1.29968067273755E-21   4.56678044482401E-18   0.00000000000000E+00   0.00000000000000E+00
      0.00000000000000E+00   0.00000000000000E+00   0.00000000000000E+00   0.00000000000000E+00   0.00000000000000E+00
      3.25026663792296E-18   0.00000000000000E+00   0.00000000000000E+00   0.00000000000000E+00   0.00000000000000E+00
      9.60092464418723E-23  -1.13660569514430E-33   9.60092464407357E-23  -1.15708030968927E-17   0.00000000000000E+00
      0.00000000000000E+00   0.00000000000000E+00   0.00000000000000E+00  -1.39568991917884E-21   5.49708623202478E-34
     -1.39568991917829E-21   3.75375601414571E-18
      0.00000000000000E+00
      0.00000000000000E+00   0.00000000000000E+00   0.00000000000000E+00   0.00000000000000E+00  -3.20796720456115E-20
      5.91635264215473E-34  -3.20796720456109E-20   4.56501471339818E-18   0.00000000000000E+00   0.00000000000000E+00
      0.00000000000000E+00   0.00000000000000E+00   0.00000000000000E+00   0.00000000000000E+00   0.00000000000000E+00
      3.24429225010960E-18   0.00000000000000E+00   0.00000000000000E+00   0.00000000000000E+00   0.00000000000000E+00
      6.73881130443929E-20  -1.11845934022914E-33   6.73881130443918E-20  -1.15618118761675E-17   0.00000000000000E+00
      0.00000000000000E+00   0.00000000000000E+00   0.00000000000000E+00  -3.53084409987814E-20   5.26824076013664E-34
     -3.53084409987809E-20   3.75250491265971E-18
      1.00000000000000E-03
      0.00000000000000E+00   1.96789536557255E-12   0.00000000000000E+00   0.00000000000000E+00  -8.33934305648354E-12
      5.61992431898769E-34  -8.33934305648354E-12   4.56499878739319E-18   0.00000000000000E+00   0.00000000000000E+00
      0.00000000000000E+00   0.00000000000000E+00   0.00000000000000E+00   0.00000000000000E+00   0.00000000000000E+00
      3.24373849874082E-18   0.00000000000000E+00   0.00000000000000E+00   0.00000000000000E+00   0.00000000000000E+00
     -1.15965593027739E-19  -1.10610875896290E-33  -1.15965593027740E-19  -1.15617931240415E-17   5.00000000000000E-05
      4.99999980063578E-05   0.00000000000000E+00   0.00000000000000E+00   8.33934317244913E-12   5.44116327064129E-34
      8.33934317244913E-12   3.75305583790748E-18
      2.09333333333333E-03
      0.00000000000000E+00   4.11294598238133E-12   0.00000000000000E+00   0.00000000000000E+00  -1.74293137824196E-11
      5.88075662515333E-34  -1.74293137824196E-11   4.56498137518328E-18   0.00000000000000E+00   0.00000000000000E+00
      0.00000000000000E+00   0.00000000000000E+00   0.00000000000000E+00   0.00000000000000E+00   0.00000000000000E+00
      3.24313307321501E-18   0.00000000000000E+00   0.00000000000000E+00   0.00000000000000E+00   0.00000000000000E+00
     -3.21395412766809E-21  -1.12156626530957E-33  -3.21395412766921E-21  -1.15617726430812E-17   1.04666666666667E-04
      1.04666662499919E-04   0.00000000000000E+00   0.00000000000000E+00   1.74293137856335E-11   5.33490602794233E-34
      1.74293137856335E-11   3.75365819468288E-18
      3.29600000000000E-03
      0.00000000000000E+00   6.46432138571445E-12   0.00000000000000E+00   0.00000000000000E+00  -2.73936163026841E-11
      5.75803813977702E-34  -2.73936163026841E-11   4.56496222202162E-18   0.00000000000000E+00   0.00000000000000E+00
      0.00000000000000E+00   0.00000000000000E+00   0.00000000000000E+00   0.00000000000000E+00   0.00000000000000E+00
      3.24246711635191E-18   0.00000000000000E+00   0.00000000000000E+00   0.00000000000000E+00   0.00000000000000E+00
     -1.89602654239529E-20  -1.10405189289336E-33  -1.89602654239540E-20  -1.15617501397801E-17   1.64800000000000E-04
      1.64799993451141E-04   0.00000000000000E+00   0.00000000000000E+00   2.73936163216443E-11   5.28248078915659E-34
      2.73936163216443E-11   3.75432080140651E-18
      4.61893333333333E-03
      0.00000000000000E+00   9.04075348634989E-12   0.00000000000000E+00   0.00000000000000E+00  -3.83115622476284E-11
      5.58817405305067E-34  -3.83115622476284E-11   4.56494115387029E-18   0.00000000000000E+00   0.00000000000000E+00
      0.00000000000000E+00   0.00000000000000E+00   0.00000000000000E+00   0.00000000000000E+00   0.00000000000000E+00
      3.24173457735925E-18   0.00000000000000E+00   0.00000000000000E+00   0.00000000000000E+00   0.00000000000000E+00
     -2.71972947242785E-20  -1.11409921931808E-33  -2.71972947242797E-20  -1.15617254172855E-17   2.30946666666667E-04
      2.30946657507689E-04   0.00000000000000E+00   0.00000000000000E+00   3.83115622748256E-11   5.55281814013011E-34
      3.83115622748256E-11   3.75504968605602E-18
      6.07416000000000E-03
      0.00000000000000E+00   1.18624498927182E-11   0.00000000000000E+00   0.00000000000000E+00  -5.02688174959123E-11
      5.57336760851643E-34  -5.02688174959123E-11   4.56491797929940E-18   0.00000000000000E+00   0.00000000000000E+00
      0.00000000000000E+00   0.00000000000000E+00   0.00000000000000E+00   0.00000000000000E+00   0.00000000000000E+00
      3.24092880085271E-18   0.00000000000000E+00   0.00000000000000E+00   0.00000000000000E+00   0.00000000000000E+00
     -4.32480127040960E-21  -1.12280813287976E-33  -4.32480127041072E-21  -1.15616982601814E-17   3.03708000000000E-04
      3.03707987982417E-04   0.00000000000000E+00   0.00000000000000E+00   5.02688175002371E-11   5.65471372028114E-34
      5.02688175002371E-11   3.75585148002934E-18
      7.67490933333333E-03
      0.00000000000000E+00   1.49512131324366E-11   0.00000000000000E+00   0.00000000000000E+00  -6.33576470559627E-11
      5.87335102763303E-34  -6.33576470559627E-11   4.56489248775039E-18   0.00000000000000E+00   0.00000000000000E+00
      0.00000000000000E+00   0.00000000000000E+00   0.00000000000000E+00   0.00000000000000E+00   0.00000000000000E+00
      3.24004246649718E-18   0.00000000000000E+00   0.00000000000000E+00   0.00000000000000E+00   0.00000000000000E+00
     -1.33264867839971E-20  -1.15709251607662E-33  -1.33264867839983E-20  -1.15616684328634E-17   3.83745466666667E-04
      3.83745451519962E-04   0.00000000000000E+00   0.00000000000000E+00   6.33576470692892E-11   5.69757413313314E-34
      6.33576470692892E-11   3.75673347861586E-18
      9.43573360000000E-03
      0.00000000000000E+00   1.83304097430221E-11   0.00000000000000E+00   0.00000000000000E+00  -7.76771431774721E-11
      5.89585777930697E-34  -7.76771431774721E-11   4.56486444762617E-18   0.00000000000000E+00   0.00000000000000E+00
      0.00000000000000E+00   0.00000000000000E+00   0.00000000000000E+00   0.00000000000000E+00   0.00000000000000E+00
      3.23906752263315E-18   0.00000000000000E+00   0.00000000000000E+00   0.00000000000000E+00   0.00000000000000E+00
      4.48090221538066E-20  -1.14386115603985E-33   4.48090221538055E-20  -1.15616356778009E-17   4.71786680000000E-04
      4.71786661429916E-04   0.00000000000000E+00   0.00000000000000E+00   7.76771431326630E-11   5.54275378109152E-34
      7.76771431326630E-11   3.75770370754158E-18
      1.13726402933333E-02
      0.00000000000000E+00   2.20250965584053E-11   0.00000000000000E+00   0.00000000000000E+00  -9.33334038515752E-11
      5.96025726021114E-34  -9.33334038515752E-11   4.56483360419101E-18   0.00000000000000E+00   0.00000000000000E+00
      0.00000000000000E+00   0.00000000000000E+00   0.00000000000000E+00   0.00000000000000E+00   0.00000000000000E+00
      3.23799511329083E-18   0.00000000000000E+00   0.00000000000000E+00   0.00000000000000E+00   0.00000000000000E+00
      4.05778508406375E-20  -1.14753645899474E-33   4.05778508406363E-20  -1.15615997136829E-17   5.68632014666667E-04
      5.68631992353611E-04   0.00000000000000E+00   0.00000000000000E+00   9.33334038109974E-11   5.51510732973625E-34
      9.33334038109974E-11   3.75877099620104E-18
      1.35032376560000E-02
      0.00000000000000E+00   2.60620145270732E-11   0.00000000000000E+00   0.00000000000000E+00  -1.10439640087811E-10
      5.65763296692801E-34  -1.10439640087811E-10   4.56479967726078E-18   0.00000000000000E+00   0.00000000000000E+00
      0.00000000000000E+00   0.00000000000000E+00   0.00000000000000E+00   0.00000000000000E+00   0.00000000000000E+00
      3.23681549793502E-18   0.00000000000000E+00   0.00000000000000E+00   0.00000000000000E+00   0.00000000000000E+00
      7.79475681849541E-20  -1.13001877727380E-33   7.79475681849530E-20  -1.15615602334470E-17   6.75161882800000E-04
      6.75161856397265E-04   0.00000000000000E+00   0.00000000000000E+00   1.10439640009864E-10   5.64255480580996E-34
      1.10439640009864E-10   3.75994505825116E-18
      1.58468947549333E-02
      0.00000000000000E+00   3.04695701664971E-11   0.00000000000000E+00   0.00000000000000E+00  -1.29116184447030E-10
      5.34163858361664E-34  -1.29116184447030E-10   4.56476235866350E-18   0.00000000000000E+00   0.00000000000000E+00
      0.00000000000000E+00   0.00000000000000E+00   0.00000000000000E+00   0.00000000000000E+00   0.00000000000000E+00
      3.23551796322030E-18   0.00000000000000E+00   0.00000000000000E+00   0.00000000000000E+00   0.00000000000000E+00
      9.84350876748223E-20  -1.08445095218151E-33   9.84350876748213E-20  -1.15615169021948E-17   7.92344737746667E-04
      7.92344706878790E-04   0.00000000000000E+00   0.00000000000000E+00   1.29116184348595E-10   5.50287093819846E-34
      1.29116184348595E-10   3.76123658031096E-18
      1.84249175637600E-02
      0.00000000000000E+00   3.52778161344383E-11   0.00000000000000E+00   0.00000000000000E+00  -1.49490366838642E-10
      5.73017788921840E-34  -1.49490366838642E-10   4.56472130944676E-18   0.00000000000000E+00   0.00000000000000E+00
      0.00000000000000E+00   0.00000000000000E+00   0.00000000000000E+00   0.00000000000000E+00   0.00000000000000E+00
      3.23409072596523E-18   0.00000000000000E+00   0.00000000000000E+00   0.00000000000000E+00   0.00000000000000E+00
      1.38060839685888E-19  -1.11121324000960E-33   1.38060839685887E-19  -1.15614693549995E-17   9.21245878188001E-04
      9.21245842449049E-04   0.00000000000000E+00   0.00000000000000E+00   1.49490366700581E-10   5.38195451087757E-34
      1.49490366700581E-10   3.76265731958750E-18
      2.12607426534693E-02
      0.00000000000000E+00   4.05184318002537E-11   0.00000000000000E+00   0.00000000000000E+00  -1.71696228639156E-10
      5.87124516668094E-34  -1.71696228639156E-10   4.56467615680722E-18   0.00000000000000E+00   0.00000000000000E+00
      0.00000000000000E+00   0.00000000000000E+00   0.00000000000000E+00   0.00000000000000E+00   0.00000000000000E+00
      3.23252082647503E-18   0.00000000000000E+00   0.00000000000000E+00   0.00000000000000E+00   0.00000000000000E+00
      2.74442627071285E-19  -1.11320123573206E-33   2.74442627071284E-19  -1.15614171946142E-17   1.06303713267347E-03
      1.06303709162543E-03   0.00000000000000E+00   0.00000000000000E+00   1.71696228364713E-10   5.26076719063965E-34
      1.71696228364713E-10   3.76422021133197E-18
      2.43801502521496E-02
      0.00000000000000E+00   4.62245439710334E-11   0.00000000000000E+00   0.00000000000000E+00  -1.95874030702466E-10
      5.69915532042759E-34  -1.95874030702466E-10   4.56462649071467E-18   0.00000000000000E+00   0.00000000000000E+00
      0.00000000000000E+00   0.00000000000000E+00   0.00000000000000E+00   0.00000000000000E+00   0.00000000000000E+00
      3.23079401125834E-18   0.00000000000000E+00   0.00000000000000E+00   0.00000000000000E+00   0.00000000000000E+00
      3.77778985913493E-19  -1.11788934506663E-33   3.77778985913492E-19  -1.15613599890948E-17   1.21900751260748E-03
      1.21900746577882E-03   0.00000000000000E+00   0.00000000000000E+00   1.95874030324687E-10   5.47973813023869E-34
      1.95874030324687E-10   3.76593948712184E-18
      2.78114986106979E-02
      0.00000000000000E+00   5.24305590983315E-11   0.00000000000000E+00   0.00000000000000E+00  -2.22169509020588E-10
      5.53690802548085E-34  -2.22169509020588E-10   4.56457186020002E-18   0.00000000000000E+00   0.00000000000000E+00
      0.00000000000000E+00   0.00000000000000E+00   0.00000000000000E+00   0.00000000000000E+00   0.00000000000000E+00
      3.22889460408933E-18   0.00000000000000E+00   0.00000000000000E+00   0.00000000000000E+00   0.00000000000000E+00
      5.76867456825778E-19  -1.10137472286595E-33   5.76867456825777E-19  -1.15612972693586E-17   1.39057493053490E-03
      1.39057487741916E-03   0.00000000000000E+00   0.00000000000000E+00   2.22169508443720E-10   5.47683920317869E-34
      2.22169508443720E-10   3.76783080506921E-18
      3.15859818051010E-02
      0.00000000000000E+00   5.91719760562011E-11   0.00000000000000E+00   0.00000000000000E+00  -2.50732823825057E-10
      5.70767908188544E-34  -2.50732823825057E-10   4.56451176927453E-18   0.00000000000000E+00   0.00000000000000E+00
      0.00000000000000E+00   0.00000000000000E+00   0.00000000000000E+00   0.00000000000000E+00   0.00000000000000E+00
      3.22680536426432E-18   0.00000000000000E+00   0.00000000000000E+00   0.00000000000000E+00   0.00000000000000E+00
      1.92311366227966E-18  -1.08875176635017E-33   1.92311366227966E-18  -1.15612285267048E-17   1.57929909025505E-03
      1.57929903030986E-03   0.00000000000000E+00   0.00000000000000E+00   2.50732821901944E-10   5.17983858161626E-34
      2.50732821901944E-10   3.76991139316597E-18
      3.57379133189445E-02
      0.00000000000000E+00   6.64849958010615E-11   0.00000000000000E+00   0.00000000000000E+00  -2.81717136651360E-10
      5.52545925560367E-34  -2.81717136651360E-10   4.56444567244350E-18   0.00000000000000E+00   0.00000000000000E+00
      0.00000000000000E+00   0.00000000000000E+00   0.00000000000000E+00   0.00000000000000E+00   0.00000000000000E+00
      3.22450733078836E-18   0.00000000000000E+00   0.00000000000000E+00   0.00000000000000E+00   0.00000000000000E+00
      1.23633345713528E-18  -1.03317181708993E-33   1.23633345713528E-18  -1.15611532103352E-17   1.78689566594722E-03
      1.78689559859354E-03   0.00000000000000E+00   0.00000000000000E+00   2.81717135415027E-10   4.80625891529559E-34
      2.81717135415027E-10   3.77220020710334E-18
      4.03050379841723E-02
      0.00000000000000E+00   7.44060877585639E-11   0.00000000000000E+00   0.00000000000000E+00  -3.15276764475912E-10
      5.73443209393895E-34  -3.15276764475912E-10   4.56437296977407E-18   0.00000000000000E+00   0.00000000000000E+00
      0.00000000000000E+00   0.00000000000000E+00   0.00000000000000E+00   0.00000000000000E+00   0.00000000000000E+00
      3.22197965110752E-18   0.00000000000000E+00   0.00000000000000E+00   0.00000000000000E+00   0.00000000000000E+00
      1.87138611070816E-18  -1.09947920143717E-33   1.87138611070816E-18  -1.15610707249231E-17   2.01525189920861E-03
      2.01525182383044E-03   0.00000000000000E+00   0.00000000000000E+00   3.15276762604526E-10   5.26035992043269E-34
      3.15276762604526E-10   3.77471810404155E-18
      4.53288751159228E-02
      0.00000000000000E+00   8.29714705475771E-11   0.00000000000000E+00   0.00000000000000E+00  -3.51564815905871E-10
      5.50968472005595E-34  -3.51564815905871E-10   4.56429300147403E-18   0.00000000000000E+00   0.00000000000000E+00
      0.00000000000000E+00   0.00000000000000E+00   0.00000000000000E+00   0.00000000000000E+00   0.00000000000000E+00
      3.21919939285961E-18   0.00000000000000E+00   0.00000000000000E+00   0.00000000000000E+00   0.00000000000000E+00
      1.08988881905093E-17  -1.09793330072663E-33   1.08988881905093E-17  -1.15609804282877E-17   2.26644375579614E-03
      2.26644367174079E-03   0.00000000000000E+00   0.00000000000000E+00   3.51564805006983E-10   5.46964828721035E-34
      3.51564805006983E-10   3.77748803395404E-18
      5.08550959608485E-02
      0.00000000000000E+00   9.22163454298808E-11   0.00000000000000E+00   0.00000000000000E+00  -3.90730094988883E-10
      5.57901464878570E-34  -3.90730094988883E-10   4.56420504193247E-18   0.00000000000000E+00   0.00000000000000E+00
      0.00000000000000E+00   0.00000000000000E+00   0.00000000000000E+00   0.00000000000000E+00   0.00000000000000E+00
      3.21614133700979E-18   0.00000000000000E+00   0.00000000000000E+00   0.00000000000000E+00   0.00000000000000E+00
      4.05209970810550E-18  -1.07840174877288E-33   4.05209970810550E-18  -1.15608816292957E-17   2.54275479804242E-03
      2.54275470462157E-03   0.00000000000000E+00   0.00000000000000E+00   3.90730090936784E-10   5.20500283894314E-34
      3.90730090936784E-10   3.78053525035345E-18
      5.69339388902666E-02
      0.00000000000000E+00   1.02174153604166E-10   0.00000000000000E+00   0.00000000000000E+00  -4.32913852602858E-10
      5.95838319648482E-34  -4.32913852602858E-10   4.56410829316844E-18   0.00000000000000E+00   0.00000000000000E+00
      0.00000000000000E+00   0.00000000000000E+00   0.00000000000000E+00   0.00000000000000E+00   0.00000000000000E+00
      3.21277775039827E-18   0.00000000000000E+00   0.00000000000000E+00   0.00000000000000E+00   0.00000000000000E+00
      1.48570901196367E-17  -1.09440928341843E-33   1.48570901196367E-17  -1.15607735859194E-17   2.84669694451333E-03
      2.84669684100475E-03   0.00000000000000E+00   0.00000000000000E+00   4.32913837745768E-10   4.98570963769950E-34
      4.32913837745768E-10   3.78388754235269E-18
      6.36206661126266E-02
      0.00000000000000E+00   1.12875449341758E-10   0.00000000000000E+00   0.00000000000000E+00  -4.78245057300463E-10
      5.72183015400650E-34  -4.78245057300463E-10   4.56400187763246E-18   0.00000000000000E+00   0.00000000000000E+00
      0.00000000000000E+00   0.00000000000000E+00   0.00000000000000E+00   0.00000000000000E+00   0.00000000000000E+00
      3.20907813593577E-18   0.00000000000000E+00   0.00000000000000E+00   0.00000000000000E+00   0.00000000000000E+00
      8.60275240977547E-18  -1.08333152193454E-33   8.60275240977546E-18  -1.15606555038654E-17   3.18103330563133E-03
      3.18103319128186E-03   0.00000000000000E+00   0.00000000000000E+00   4.78245048697711E-10   5.11148506533890E-34
      4.78245048697711E-10   3.78757549029717E-18
      7.09760660572226E-02
      0.00000000000000E+00   1.24346729849342E-10   0.00000000000000E+00   0.00000000000000E+00  -5.26835385278880E-10
      5.88777564600327E-34  -5.26835385278880E-10   4.56388483029388E-18   0.00000000000000E+00   0.00000000000000E+00
      0.00000000000000E+00   0.00000000000000E+00   0.00000000000000E+00   0.00000000000000E+00   0.00000000000000E+00
      3.20500895803571E-18   0.00000000000000E+00   0.00000000000000E+00   0.00000000000000E+00   0.00000000000000E+00
      1.25263997481562E-17  -1.05818498588881E-33   1.25263997481562E-17  -1.15605265356857E-17   3.54880330286113E-03
      3.54880317689076E-03   0.00000000000000E+00   0.00000000000000E+00   5.26835372752481E-10   4.69407421288478E-34
      5.26835372752481E-10   3.79163274735616E-18
      7.90670059962782E-02
      0.00000000000000E+00   1.36609005493676E-10   0.00000000000000E+00   0.00000000000000E+00  -5.78773126663830E-10
      5.80188452178726E-34  -5.78773126663830E-10   4.56375608994491E-18   0.00000000000000E+00   0.00000000000000E+00
      0.00000000000000E+00   0.00000000000000E+00   0.00000000000000E+00   0.00000000000000E+00   0.00000000000000E+00
      3.20053334091685E-18   0.00000000000000E+00   0.00000000000000E+00   0.00000000000000E+00   0.00000000000000E+00
      1.47305471941581E-17  -1.05955062136483E-33   1.47305471941581E-17  -1.15603857806012E-17   3.95335029981391E-03
      3.95335016142143E-03   0.00000000000000E+00   0.00000000000000E+00   5.78773111933283E-10   4.79362169186101E-34
      5.78773111933283E-10   3.79609634973942E-18
      8.79670399292394E-02
      0.00000000000000E+00   1.49676067998424E-10   0.00000000000000E+00   0.00000000000000E+00  -6.34116202171467E-10
      5.61906712009068E-34  -6.34116202171467E-10   4.56361448964487E-18   0.00000000000000E+00   0.00000000000000E+00
      0.00000000000000E+00   0.00000000000000E+00   0.00000000000000E+00   0.00000000000000E+00   0.00000000000000E+00
      3.19561073719635E-18   0.00000000000000E+00   0.00000000000000E+00   0.00000000000000E+00   0.00000000000000E+00
      1.73145338234675E-17  -1.03680137311147E-33   1.73145338234675E-17  -1.15602322853730E-17   4.39835199646197E-03
      4.39835184483199E-03   0.00000000000000E+00   0.00000000000000E+00   6.34116184856933E-10   4.74894661102400E-34
      6.34116184856933E-10   3.80100705853178E-18
      9.77570772554967E-02
      0.00000000000000E+00   1.63552823992046E-10   0.00000000000000E+00   0.00000000000000E+00  -6.92884361149558E-10
      5.99061636924747E-34  -6.92884361149558E-10   4.56345874621996E-18   0.00000000000000E+00   0.00000000000000E+00
      0.00000000000000E+00   0.00000000000000E+00   0.00000000000000E+00   0.00000000000000E+00   0.00000000000000E+00
      3.19019656372866E-18   0.00000000000000E+00   0.00000000000000E+00   0.00000000000000E+00   0.00000000000000E+00
      3.80796172783954E-17  -1.06206857507416E-33   3.80796172783954E-17  -1.15600650462786E-17   4.88785386277484E-03
      4.88785369708722E-03   0.00000000000000E+00   0.00000000000000E+00   6.92884323069941E-10   4.63006938149409E-34
      6.92884323069941E-10   3.80640973632996E-18
      1.07757077255497E-01
      0.00000000000000E+00   1.77204608951246E-10   0.00000000000000E+00   0.00000000000000E+00  -7.50695521103354E-10
      5.91516164557596E-34  -7.50695521103354E-10   4.56329968075704E-18   0.00000000000000E+00   0.00000000000000E+00
      0.00000000000000E+00   0.00000000000000E+00   0.00000000000000E+00   0.00000000000000E+00   0.00000000000000E+00
      3.18466701571768E-18   0.00000000000000E+00   0.00000000000000E+00   0.00000000000000E+00   0.00000000000000E+00
      4.38577163494070E-17  -1.04042424082872E-33   4.38577163494070E-17  -1.15598959453943E-17   5.38785386277483E-03
      5.38785368325753E-03   0.00000000000000E+00   0.00000000000000E+00   7.50695477245637E-10   4.48908076271127E-34
      7.50695477245637E-10   3.81192924891956E-18
      1.17757077255497E-01
      0.00000000000000E+00   1.90344014199627E-10   0.00000000000000E+00   0.00000000000000E+00  -8.06332719587211E-10
      5.32571083123994E-34  -8.06332719587211E-10   4.56314063344085E-18   0.00000000000000E+00   0.00000000000000E+00
      0.00000000000000E+00   0.00000000000000E+00   0.00000000000000E+00   0.00000000000000E+00   0.00000000000000E+00
      3.17913821014935E-18   0.00000000000000E+00   0.00000000000000E+00   0.00000000000000E+00   0.00000000000000E+00
      5.72039127274266E-17  -1.01004856368679E-33   5.72039127274266E-17  -1.15597285755667E-17   5.88785386277483E-03
      5.88785366994696E-03   0.00000000000000E+00   0.00000000000000E+00   8.06332662383298E-10   4.77477480562793E-34
      8.06332662383298E-10   3.81744973197652E-18
      1.27757077255497E-01
      0.00000000000000E+00   2.02986711628597E-10   0.00000000000000E+00   0.00000000000000E+00  -8.59862835700668E-10
      5.61833955546874E-34  -8.59862835700668E-10   4.56298160410110E-18   0.00000000000000E+00   0.00000000000000E+00
      0.00000000000000E+00   0.00000000000000E+00   0.00000000000000E+00   0.00000000000000E+00   0.00000000000000E+00
      3.17361014076516E-18   0.00000000000000E+00   0.00000000000000E+00   0.00000000000000E+00   0.00000000000000E+00
      4.33270629288033E-17  -1.00681265988093E-33   4.33270629288033E-17  -1.15595629246981E-17   6.38785386277483E-03
      6.38785365713957E-03   0.00000000000000E+00   0.00000000000000E+00   8.59862792373605E-10   4.44978704334057E-34
      8.59862792373605E-10   3.82297117983183E-18
      1.37757077255497E-01
      0.00000000000000E+00   2.15148278635461E-10   0.00000000000000E+00   0.00000000000000E+00  -9.11352080294101E-10
      5.82378892168092E-34  -9.11352080294101E-10   4.56282259256679E-18   0.00000000000000E+00   0.00000000000000E+00
      0.00000000000000E+00   0.00000000000000E+00   0.00000000000000E+00   0.00000000000000E+00   0.00000000000000E+00
      3.16808280135150E-18   0.00000000000000E+00   0.00000000000000E+00   0.00000000000000E+00   0.00000000000000E+00
      4.26435927195503E-17  -1.02788379522281E-33   4.26435927195503E-17  -1.15593989807567E-17   6.88785386277483E-03
      6.88785364481960E-03   0.00000000000000E+00   0.00000000000000E+00   9.11352037650508E-10   4.45504903054718E-34
      9.11352037650508E-10   3.82849358683832E-18
      1.47757077255497E-01
      0.00000000000000E+00   2.26844033862638E-10   0.00000000000000E+00   0.00000000000000E+00  -9.60865774911816E-10
      5.54280353692368E-34  -9.60865774911816E-10   4.56266359866501E-18   0.00000000000000E+00   0.00000000000000E+00
      0.00000000000000E+00   0.00000000000000E+00   0.00000000000000E+00   0.00000000000000E+00   0.00000000000000E+00
      3.16255618569499E-18   0.00000000000000E+00   0.00000000000000E+00   0.00000000000000E+00   0.00000000000000E+00
      4.18937537318881E-17  -9.92744247229780E-34   4.18937537318881E-17  -1.15592367317292E-17   7.38785386277483E-03
      7.38785363297154E-03   0.00000000000000E+00   0.00000000000000E+00   9.60865733018062E-10   4.38463893537412E-34
      9.60865733018062E-10   3.83401694736922E-18
      1.57757077255497E-01
      0.00000000000000E+00   2.38089071639438E-10   0.00000000000000E+00   0.00000000000000E+00  -1.00846811372005E-09
      5.77159726081778E-34  -1.00846811372005E-09   4.56250462222316E-18   0.00000000000000E+00   0.00000000000000E+00
      0.00000000000000E+00   0.00000000000000E+00   0.00000000000000E+00   0.00000000000000E+00   0.00000000000000E+00
      3.15703028764347E-18   0.00000000000000E+00   0.00000000000000E+00   0.00000000000000E+00   0.00000000000000E+00
      4.12094076406348E-17  -1.03165113256042E-33   4.12094076406348E-17  -1.15590761656970E-17   7.88785386277484E-03
      7.88785362158010E-03   0.00000000000000E+00   0.00000000000000E+00   1.00846807251064E-09   4.54491406478642E-34
      1.00846807251064E-09   3.83954125583040E-18
      1.67757077255497E-01
      0.00000000000000E+00   2.48898171903572E-10   0.00000000000000E+00   0.00000000000000E+00  -1.05422206778817E-09
      5.71667870823529E-34  -1.05422206778817E-09   4.56234566306869E-18   0.00000000000000E+00   0.00000000000000E+00
      0.00000000000000E+00   0.00000000000000E+00   0.00000000000000E+00   0.00000000000000E+00   0.00000000000000E+00
      3.15150510110359E-18   0.00000000000000E+00   0.00000000000000E+00   0.00000000000000E+00   0.00000000000000E+00
      4.38082824547352E-17  -1.01838559557884E-33   4.38082824547352E-17  -1.15589172708443E-17   8.38785386277484E-03
      8.38785361063029E-03   0.00000000000000E+00   0.00000000000000E+00   1.05422202397989E-09   4.46717724755306E-34
      1.05422202397989E-09   3.84506650667195E-18
      1.77757077255497E-01
      0.00000000000000E+00   2.59285811681744E-10   0.00000000000000E+00   0.00000000000000E+00  -1.09818927021237E-09
      5.32769118539937E-34  -1.09818927021237E-09   4.56218672102994E-18   0.00000000000000E+00   0.00000000000000E+00
      0.00000000000000E+00   0.00000000000000E+00   0.00000000000000E+00   0.00000000000000E+00   0.00000000000000E+00
      3.14598062003470E-18   0.00000000000000E+00   0.00000000000000E+00   0.00000000000000E+00   0.00000000000000E+00
      3.98734543390667E-17  -9.45174238358303E-34   3.98734543390667E-17  -1.15587600354463E-17   8.88785386277484E-03
      8.88785360010743E-03   0.00000000000000E+00   0.00000000000000E+00   1.09818923033892E-09   4.12405119818366E-34
      1.09818923033892E-09   3.85059269438170E-18
      1.87757077255497E-01
      0.00000000000000E+00   2.69266169505258E-10   0.00000000000000E+00   0.00000000000000E+00  -1.14043003465930E-09
      5.35209579258846E-34  -1.14043003465930E-09   4.56202779593520E-18   0.00000000000000E+00   0.00000000000000E+00
      0.00000000000000E+00   0.00000000000000E+00   0.00000000000000E+00   0.00000000000000E+00   0.00000000000000E+00
      3.14045683844273E-18   0.00000000000000E+00   0.00000000000000E+00   0.00000000000000E+00   0.00000000000000E+00
      3.91903402940668E-17  -9.61228997041249E-34   3.91903402940668E-17  -1.15586044478596E-17   9.38785386277484E-03
      9.38785358999720E-03   0.00000000000000E+00   0.00000000000000E+00   1.14042999546896E-09   4.26019417782402E-34
      1.14042999546896E-09   3.85611981348168E-18
      1.97757077255497E-01
      0.00000000000000E+00   2.78853068007065E-10   0.00000000000000E+00   0.00000000000000E+00  -1.18100321365692E-09