DF-ISE text

Info {
  version   = 1.0
  type      = xyplot
  datasets  = [
    "time"
    "source OuterVoltage" "source InnerVoltage" "source QuasiFermiPotential" "source DisplacementCurrent" "source eCurrent"
    "source hCurrent" "source TotalCurrent" "source Charge" "gate OuterVoltage" "gate InnerVoltage"
    "gate QuasiFermiPotential" "gate DisplacementCurrent" "gate eCurrent" "gate hCurrent" "gate TotalCurrent"
    "gate Charge" "substrate OuterVoltage" "substrate InnerVoltage" "substrate QuasiFermiPotential" "substrate DisplacementCurrent"
    "substrate eCurrent" "substrate hCurrent" "substrate TotalCurrent" "substrate Charge" "drain OuterVoltage"
    "drain InnerVoltage" "drain QuasiFermiPotential" "drain DisplacementCurrent" "drain eCurrent" "drain hCurrent"
    "drain TotalCurrent" "drain Charge" ]
  functions = [
    Time
    OuterVoltage InnerVoltage QuasiFermiPotential DisplacementCurrent eCurrent
    hCurrent TotalCurrent Charge OuterVoltage InnerVoltage
    QuasiFermiPotential DisplacementCurrent eCurrent hCurrent TotalCurrent
    Charge OuterVoltage InnerVoltage QuasiFermiPotential DisplacementCurrent
    eCurrent hCurrent TotalCurrent Charge OuterVoltage
    InnerVoltage QuasiFermiPotential DisplacementCurrent eCurrent hCurrent
    TotalCurrent Charge ]
}

Data {
      0.00000000000000E+00
      0.00000000000000E+00   0.00000000000000E+00   0.00000000000000E+00   0.00000000000000E+00   4.52961520122184E-21
      1.14280690250650E-33   4.52961520122298E-21   4.89619239475552E-18   0.00000000000000E+00   0.00000000000000E+00
      0.00000000000000E+00   0.00000000000000E+00   0.00000000000000E+00   0.00000000000000E+00   0.00000000000000E+00
      4.66895440543184E-17   0.00000000000000E+00   0.00000000000000E+00   0.00000000000000E+00   0.00000000000000E+00
     -5.09845750775926E-21  -2.12177359981250E-33  -5.09845750776139E-21  -5.56095688759014E-17   0.00000000000000E+00
      0.00000000000000E+00   0.00000000000000E+00   0.00000000000000E+00   5.68842306537427E-22   9.78966697306001E-34
      5.68842306538406E-22   4.02383242682754E-18
      0.00000000000000E+00
      0.00000000000000E+00   0.00000000000000E+00   0.00000000000000E+00   0.00000000000000E+00   2.37394721652187E-20
      1.12230996773182E-33   2.37394721652199E-20   4.89616500969950E-18   0.00000000000000E+00   0.00000000000000E+00
      0.00000000000000E+00   0.00000000000000E+00   0.00000000000000E+00   0.00000000000000E+00   0.00000000000000E+00
      4.66889038518384E-17   0.00000000000000E+00   0.00000000000000E+00   0.00000000000000E+00   0.00000000000000E+00
     -2.57557852997667E-20  -2.09992924307935E-33  -2.57557852997688E-20  -5.56088814209470E-17   0.00000000000000E+00
      0.00000000000000E+00   0.00000000000000E+00   0.00000000000000E+00   2.01631313454796E-21   9.77619275347531E-34
      2.01631313454894E-21   4.02381255940906E-18
      1.00000000000000E-03
      0.00000000000000E+00   6.44910783486951E-13   0.00000000000000E+00   0.00000000000000E+00  -2.63693250797391E-12
      1.17486136752892E-33  -2.63693250797391E-12   4.89616499852585E-18   0.00000000000000E+00   0.00000000000000E+00
      0.00000000000000E+00   0.00000000000000E+00   0.00000000000000E+00   0.00000000000000E+00   0.00000000000000E+00
      4.66837903260410E-17   0.00000000000000E+00   0.00000000000000E+00   0.00000000000000E+00   0.00000000000000E+00
     -1.65721712810055E-20  -2.10793254613291E-33  -1.65721712810077E-20  -5.56087907266204E-17   4.30000000000000E-04
      4.29999999295386E-04   0.00000000000000E+00   0.00000000000000E+00   2.63693252454609E-12   9.33071178603988E-34
      2.63693252454609E-12   4.02883540205367E-18
      2.08666666666667E-03
      0.00000000000000E+00   1.33273602043412E-12   0.00000000000000E+00   0.00000000000000E+00  -5.44936283044762E-12
      1.16083492625008E-33  -5.44936283044762E-12   4.89616498651449E-18   0.00000000000000E+00   0.00000000000000E+00
      0.00000000000000E+00   0.00000000000000E+00   0.00000000000000E+00   0.00000000000000E+00   0.00000000000000E+00
      4.66782345505303E-17   0.00000000000000E+00   0.00000000000000E+00   0.00000000000000E+00   0.00000000000000E+00
      1.21595649618480E-17  -2.11804085142591E-33   1.21595649618480E-17  -5.56086938046640E-17   8.97266666666667E-04
      8.97266665210538E-04   0.00000000000000E+00   0.00000000000000E+00   5.44935067088266E-12   9.57205925175833E-34
      5.44935067088266E-12   4.03429426761907E-18
      3.28200000000000E-03
      0.00000000000000E+00   2.07392746531123E-12   0.00000000000000E+00   0.00000000000000E+00  -8.47996923361435E-12
      1.16439498317295E-33  -8.47996923361435E-12   4.89616497345701E-18   0.00000000000000E+00   0.00000000000000E+00
      0.00000000000000E+00   0.00000000000000E+00   0.00000000000000E+00   0.00000000000000E+00   0.00000000000000E+00
      4.66721242944614E-17   0.00000000000000E+00   0.00000000000000E+00   0.00000000000000E+00   0.00000000000000E+00
      1.73638838424386E-17  -2.11121366988756E-33   1.73638838424386E-17  -5.56085891358674E-17   1.41126000000000E-03
      1.41125999773408E-03   0.00000000000000E+00   0.00000000000000E+00   8.47995186973051E-12   9.46818686714614E-34
      8.47995186973051E-12   4.04029986794906E-18
      4.59686666666667E-03
      0.00000000000000E+00   2.87087661377556E-12   0.00000000000000E+00   0.00000000000000E+00  -1.17385624293034E-11
      1.19598287449161E-33  -1.17385624293034E-11   4.89616495927828E-18   0.00000000000000E+00   0.00000000000000E+00
      0.00000000000000E+00   0.00000000000000E+00   0.00000000000000E+00   0.00000000000000E+00   0.00000000000000E+00
      4.66654043234674E-17   0.00000000000000E+00   0.00000000000000E+00   0.00000000000000E+00   0.00000000000000E+00
      2.47221863608492E-17  -2.10536832158915E-33   2.47221863608492E-17  -5.56084763297890E-17   1.97665266666667E-03
      1.97665266353003E-03   0.00000000000000E+00   0.00000000000000E+00   1.17385377071171E-11   9.09385447097535E-34
      1.17385377071171E-11   4.04690704704348E-18
      6.04322000000000E-03
      0.00000000000000E+00   3.72573121968182E-12   0.00000000000000E+00   0.00000000000000E+00  -1.52339334748803E-11
      1.18027503301363E-33  -1.52339334748803E-11   4.89616494390069E-18   0.00000000000000E+00   0.00000000000000E+00
      0.00000000000000E+00   0.00000000000000E+00   0.00000000000000E+00   0.00000000000000E+00   0.00000000000000E+00
      4.66580139194619E-17   0.00000000000000E+00   0.00000000000000E+00   0.00000000000000E+00   0.00000000000000E+00
      3.50805067428923E-17  -2.06183915995359E-33   3.50805067428923E-17  -5.56083550300346E-17   2.59858460000000E-03
      2.59858459592937E-03   0.00000000000000E+00   0.00000000000000E+00   1.52338983943735E-11   8.81564126939954E-34
      1.52338983943735E-11   4.05417616667209E-18
      7.63420866666667E-03
      0.00000000000000E+00   4.64030256722243E-12   0.00000000000000E+00   0.00000000000000E+00  -1.89734478668086E-11
      1.18320612376804E-33  -1.89734478668086E-11   4.89616492724474E-18   0.00000000000000E+00   0.00000000000000E+00
      0.00000000000000E+00   0.00000000000000E+00   0.00000000000000E+00   0.00000000000000E+00   0.00000000000000E+00
      4.66498863390488E-17   0.00000000000000E+00   0.00000000000000E+00   0.00000000000000E+00   0.00000000000000E+00
      4.99646610868282E-17  -2.07269738896971E-33   4.99646610868282E-17  -5.56082249306791E-17   3.28270972666667E-03
      3.28270972159684E-03   0.00000000000000E+00   0.00000000000000E+00   1.89733979021476E-11   8.89491265201675E-34
      1.89733979021476E-11   4.06217366438572E-18
      9.38429620000000E-03
      0.00000000000000E+00   5.61592152196444E-12   0.00000000000000E+00   0.00000000000000E+00  -2.29625793563599E-11
      1.18099761827492E-33  -2.29625793563599E-11   4.89616490922976E-18   0.00000000000000E+00   0.00000000000000E+00
      0.00000000000000E+00   0.00000000000000E+00   0.00000000000000E+00   0.00000000000000E+00   0.00000000000000E+00
      4.66409482188209E-17   0.00000000000000E+00   0.00000000000000E+00   0.00000000000000E+00   0.00000000000000E+00
      7.09245382587258E-17  -2.00855792906286E-33   7.09245382587258E-17  -5.56080857964515E-17   4.03524736600000E-03
      4.03524735986429E-03   0.00000000000000E+00   0.00000000000000E+00   2.29625084318216E-11   8.27560310787941E-34
      2.29625084318216E-11   4.07097266840099E-18
      1.13093924866667E-02
      0.00000000000000E+00   6.65334845235722E-12   0.00000000000000E+00   0.00000000000000E+00  -2.72043874594485E-11
      1.15139162964174E-33  -2.72043874594485E-11   4.89616488977456E-18   0.00000000000000E+00   0.00000000000000E+00
      0.00000000000000E+00   0.00000000000000E+00   0.00000000000000E+00   0.00000000000000E+00   0.00000000000000E+00
      4.66311189222301E-17   0.00000000000000E+00   0.00000000000000E+00   0.00000000000000E+00   0.00000000000000E+00
      1.00195437545244E-16  -1.96585506217222E-33   1.00195437545244E-16  -5.56079374871979E-17   4.86303876926667E-03
      4.86303876199757E-03   0.00000000000000E+00   0.00000000000000E+00   2.72042872640110E-11   8.14463432530481E-34
      2.72042872640110E-11   4.08065367519315E-18
      1.34269984020000E-02
      0.00000000000000E+00   7.75260190397271E-12   0.00000000000000E+00   0.00000000000000E+00  -3.16989946050737E-11
      1.14315273482819E-33  -3.16989946050737E-11   4.89616486879831E-18   0.00000000000000E+00   0.00000000000000E+00
      0.00000000000000E+00   0.00000000000000E+00   0.00000000000000E+00   0.00000000000000E+00   0.00000000000000E+00
      4.66203098217227E-17   0.00000000000000E+00   0.00000000000000E+00   0.00000000000000E+00   0.00000000000000E+00
      1.41188702451951E-16  -1.96295010834933E-33   1.41188702451951E-16  -5.56077799867221E-17   5.77360931286000E-03
      5.77360930438999E-03   0.00000000000000E+00   0.00000000000000E+00   3.16988534163713E-11   8.19797373521131E-34
      3.16988534163713E-11   4.09130529620117E-18
      1.57563649088667E-02
      0.00000000000000E+00   8.91282259864453E-12   0.00000000000000E+00   0.00000000000000E+00  -3.64429033303464E-11
      1.14761818905709E-33  -3.64429033303464E-11   4.89616484622160E-18   0.00000000000000E+00   0.00000000000000E+00
      0.00000000000000E+00   0.00000000000000E+00   0.00000000000000E+00   0.00000000000000E+00   0.00000000000000E+00
      4.66084235112990E-17   0.00000000000000E+00   0.00000000000000E+00   0.00000000000000E+00   0.00000000000000E+00
      1.98196715612434E-16  -1.93226111718404E-33   1.98196715612434E-16  -5.56076134383325E-17   6.77523691081267E-03
      6.77523690107516E-03   0.00000000000000E+00   0.00000000000000E+00   3.64427051336308E-11   7.84642928126944E-34
      3.64427051336308E-11   4.10302508081179E-18
      1.83186680664200E-02
      0.00000000000000E+00   1.01321241867700E-11   0.00000000000000E+00   0.00000000000000E+00  -4.14283467126523E-11
      1.11127390039586E-33  -4.14283467126523E-11   4.89616482196750E-18   0.00000000000000E+00   0.00000000000000E+00
      0.00000000000000E+00   0.00000000000000E+00   0.00000000000000E+00   0.00000000000000E+00   0.00000000000000E+00
      4.65953529407782E-17   0.00000000000000E+00   0.00000000000000E+00   0.00000000000000E+00   0.00000000000000E+00
      2.77180145357423E-16  -1.86013415127324E-33   2.77180145357423E-16  -5.56074381860720E-17   7.87702726856060E-03
      7.87702725749108E-03   0.00000000000000E+00   0.00000000000000E+00   4.14280695325070E-11   7.48860250877380E-34
      4.14280695325070E-11   4.11592042332629E-18
      2.11372015397287E-02
      0.00000000000000E+00   1.14073883628966E-11   0.00000000000000E+00   0.00000000000000E+00  -4.66425852205573E-11
      1.16244110447880E-33  -4.66425852205573E-11   4.89616479596265E-18   0.00000000000000E+00   0.00000000000000E+00
      0.00000000000000E+00   0.00000000000000E+00   0.00000000000000E+00   0.00000000000000E+00   0.00000000000000E+00
      4.65809804648441E-17   0.00000000000000E+00   0.00000000000000E+00   0.00000000000000E+00   0.00000000000000E+00
     -3.78587407656412E-20  -1.88401815026320E-33  -3.78587407656431E-20  -5.56072548233306E-17   9.08899666208333E-03
      9.08899664962068E-03   0.00000000000000E+00   0.00000000000000E+00   4.66425852584160E-11   7.21577045784400E-34
      4.66425852584160E-11   4.13010956252380E-18
      2.42187981372128E-02
      0.00000000000000E+00   1.27263105816057E-11   0.00000000000000E+00   0.00000000000000E+00  -5.20353237612468E-11
      1.12785755811326E-33  -5.20353237612468E-11   4.89616476830459E-18   0.00000000000000E+00   0.00000000000000E+00
      0.00000000000000E+00   0.00000000000000E+00   0.00000000000000E+00   0.00000000000000E+00   0.00000000000000E+00
      4.65652725590911E-17   0.00000000000000E+00   0.00000000000000E+00   0.00000000000000E+00   0.00000000000000E+00
     -1.94851399560704E-20  -1.83133109924001E-33  -1.94851399560722E-20  -5.56070653698421E-17   1.04140831990015E-02
      1.04140831850981E-02   0.00000000000000E+00   0.00000000000000E+00   5.20353237807319E-11   7.03473541126747E-34
      5.20353237807319E-11   4.14562804244662E-18
      2.75880104171288E-02
      0.00000000000000E+00   1.40829041556519E-11   0.00000000000000E+00   0.00000000000000E+00  -5.75820507749623E-11
      1.11574887486846E-33  -5.75820507749623E-11   4.89616473894623E-18   0.00000000000000E+00   0.00000000000000E+00
      0.00000000000000E+00   0.00000000000000E+00   0.00000000000000E+00   0.00000000000000E+00   0.00000000000000E+00
      4.65481055350783E-17   0.00000000000000E+00   0.00000000000000E+00   0.00000000000000E+00   0.00000000000000E+00
     -2.03843366855088E-20  -1.79781264031428E-33  -2.03843366855106E-20  -5.56068710755131E-17   1.18628444793654E-02
      1.18628444639801E-02   0.00000000000000E+00   0.00000000000000E+00   5.75820507953466E-11   6.82063765445821E-34
      5.75820507953466E-11   4.16260080148851E-18
      3.12716825098370E-02
      0.00000000000000E+00   1.54697729343227E-11   0.00000000000000E+00   0.00000000000000E+00  -6.32525456163804E-11
      1.13289240729741E-33  -6.32525456163804E-11   4.89616470784604E-18   0.00000000000000E+00   0.00000000000000E+00
      0.00000000000000E+00   0.00000000000000E+00   0.00000000000000E+00   0.00000000000000E+00   0.00000000000000E+00
      4.65293442893409E-17   0.00000000000000E+00   0.00000000000000E+00   0.00000000000000E+00   0.00000000000000E+00
      5.34455045433677E-20  -1.76119981098324E-33   5.34455045433659E-20  -5.56066735732399E-17   1.34468234792299E-02
      1.34468234623298E-02   0.00000000000000E+00   0.00000000000000E+00   6.32525455629349E-11   6.28307403685837E-34
      6.32525455629349E-11   4.18116457605305E-18
      3.52991639978646E-02
      0.00000000000000E+00   1.68780768616617E-11   0.00000000000000E+00   0.00000000000000E+00  -6.90106566686947E-11
      1.18329494924497E-33  -6.90106566686947E-11   4.89616467496796E-18   0.00000000000000E+00   0.00000000000000E+00
      0.00000000000000E+00   0.00000000000000E+00   0.00000000000000E+00   0.00000000000000E+00   0.00000000000000E+00
      4.65088412492996E-17   0.00000000000000E+00   0.00000000000000E+00   0.00000000000000E+00   0.00000000000000E+00
      1.29232069467698E-20  -1.78205600700624E-33   1.29232069467680E-20  -5.56064749439485E-17   1.51786405190818E-02
      1.51786405006434E-02   0.00000000000000E+00   0.00000000000000E+00   6.90106566557715E-11   5.98761057761273E-34
      6.90106566557715E-11   4.20146901968108E-18
      3.97025437581081E-02
      0.00000000000000E+00   1.82974975346927E-11   0.00000000000000E+00   0.00000000000000E+00  -7.48141951517698E-11
      1.14843064232819E-33  -7.48141951517698E-11   4.89616464028093E-18   0.00000000000000E+00   0.00000000000000E+00
      0.00000000000000E+00   0.00000000000000E+00   0.00000000000000E+00   0.00000000000000E+00   0.00000000000000E+00
      4.64864352210505E-17   0.00000000000000E+00   0.00000000000000E+00   0.00000000000000E+00   0.00000000000000E+00
     -1.49317119460298E-20  -1.72045103250691E-33  -1.49317119460315E-20  -5.56062777893738E-17   1.70720938159865E-02
      1.70720937959978E-02   0.00000000000000E+00   0.00000000000000E+00   7.48141951667015E-11   5.72020390178717E-34
      7.48141951667015E-11   4.22367792804235E-18
      4.45169056293076E-02
      0.00000000000000E+00   1.97162638139712E-11   0.00000000000000E+00   0.00000000000000E+00  -8.06150779728252E-11
      1.13569902426243E-33  -8.06150779728252E-11   4.89616460375774E-18   0.00000000000000E+00   0.00000000000000E+00
      0.00000000000000E+00   0.00000000000000E+00   0.00000000000000E+00   0.00000000000000E+00   0.00000000000000E+00
      4.64619501282294E-17   0.00000000000000E+00   0.00000000000000E+00   0.00000000000000E+00   0.00000000000000E+00
     -2.42579722958242E-20  -1.64465933281365E-33  -2.42579722958259E-20  -5.56060853112258E-17   1.91422694206023E-02
      1.91422693990641E-02   0.00000000000000E+00   0.00000000000000E+00   8.06150779970831E-11   5.08960308551227E-34
      8.06150779970831E-11   4.24797057923872E-18
      4.97806079418192E-02
      0.00000000000000E+00   2.11212851750775E-11   0.00000000000000E+00   0.00000000000000E+00  -8.63597537772491E-11
      1.12805281706205E-33  -8.63597537772491E-11   4.89616456537300E-18   0.00000000000000E+00   0.00000000000000E+00
      0.00000000000000E+00   0.00000000000000E+00   0.00000000000000E+00   0.00000000000000E+00   0.00000000000000E+00
      4.64351936314310E-17   0.00000000000000E+00   0.00000000000000E+00   0.00000000000000E+00   0.00000000000000E+00
     -3.53821730474933E-20  -1.60516229599028E-33  -3.53821730474949E-20  -5.56059013966455E-17   2.14056614149822E-02
      2.14056613919097E-02   0.00000000000000E+00   0.00000000000000E+00   8.63597538126312E-11   4.77109478928232E-34
      8.63597538126312E-11   4.27454319984156E-18
      5.55355891368318E-02
      0.00000000000000E+00   2.24983256837446E-11   0.00000000000000E+00   0.00000000000000E+00  -9.19899485858570E-11
      1.10809402611597E-33  -9.19899485858570E-11   4.89616452509998E-18   0.00000000000000E+00   0.00000000000000E+00
      0.00000000000000E+00   0.00000000000000E+00   0.00000000000000E+00   0.00000000000000E+00   0.00000000000000E+00
      4.64059556164628E-17   0.00000000000000E+00   0.00000000000000E+00   0.00000000000000E+00   0.00000000000000E+00
      1.59031969549598E-20  -1.55781506184281E-33   1.59031969549583E-20  -5.56057307093932E-17   2.38803033288377E-02
      2.38803033042615E-02   0.00000000000000E+00   0.00000000000000E+00   9.19899485699539E-11   4.49721035726844E-34
      9.19899485699539E-11   4.30361056783055E-18
      6.18277019100455E-02
      0.00000000000000E+00   2.38322247764758E-11   0.00000000000000E+00   0.00000000000000E+00  -9.74437677019123E-11
      1.16215518469318E-33  -9.74437677019123E-11   4.89616448290645E-18   0.00000000000000E+00   0.00000000000000E+00
      0.00000000000000E+00   0.00000000000000E+00   0.00000000000000E+00   0.00000000000000E+00   0.00000000000000E+00
      4.63740065384205E-17   0.00000000000000E+00   0.00000000000000E+00   0.00000000000000E+00   0.00000000000000E+00
     -4.82773432865482E-20  -1.54851621407498E-33  -4.82773432865498E-20  -5.56055787857456E-17   2.65859118213196E-02
      2.65859117952870E-02   0.00000000000000E+00   0.00000000000000E+00   9.74437677501896E-11   3.86361029381797E-34
      9.74437677501896E-11   4.33540776441853E-18
      6.87070785420926E-02
      0.00000000000000E+00   2.51073556011089E-11   0.00000000000000E+00   0.00000000000000E+00  -1.02657268682453E-10
      1.20491991423510E-33  -1.02657268682453E-10   4.89616443874885E-18   0.00000000000000E+00   0.00000000000000E+00
      0.00000000000000E+00   0.00000000000000E+00   0.00000000000000E+00   0.00000000000000E+00   0.00000000000000E+00
      4.63390956062817E-17   0.00000000000000E+00   0.00000000000000E+00   0.00000000000000E+00   0.00000000000000E+00
      7.85023030106147E-21  -1.55137899506409E-33   7.85023030105991E-21  -5.56054521325873E-17   2.95440437730998E-02
      2.95440437456753E-02   0.00000000000000E+00   0.00000000000000E+00   1.02657268674603E-10   3.46459080828994E-34
      1.02657268674603E-10   4.37019208755670E-18
      7.62285303264640E-02
      0.00000000000000E+00   2.63080515649701E-11   0.00000000000000E+00   0.00000000000000E+00  -1.07566439473431E-10
      1.14731253857949E-33  -1.07566439473431E-10   4.89616439256508E-18   0.00000000000000E+00   0.00000000000000E+00
      0.00000000000000E+00   0.00000000000000E+00   0.00000000000000E+00   0.00000000000000E+00   0.00000000000000E+00
      4.63009487929667E-17   0.00000000000000E+00   0.00000000000000E+00   0.00000000000000E+00   0.00000000000000E+00
      1.51642231715607E-20  -1.46079790207737E-33   1.51642231715593E-20  -5.56053583264293E-17   3.27782680403795E-02
      3.27782680116444E-02   0.00000000000000E+00   0.00000000000000E+00   1.07566439458267E-10   3.13485363497882E-34
      1.07566439458267E-10   4.40824514089754E-18
      8.44519842773768E-02
      0.00000000000000E+00   2.74192271699731E-11   0.00000000000000E+00   0.00000000000000E+00  -1.12109574213520E-10
      1.18485414471516E-33  -1.12109574213520E-10   4.89616434426589E-18   0.00000000000000E+00   0.00000000000000E+00
      0.00000000000000E+00   0.00000000000000E+00   0.00000000000000E+00   0.00000000000000E+00   0.00000000000000E+00
      4.62592666535617E-17   0.00000000000000E+00   0.00000000000000E+00   0.00000000000000E+00   0.00000000000000E+00
     -1.63247782858284E-20  -1.46658265199684E-33  -1.63247782858298E-20  -5.56053061108023E-17   3.63143532392720E-02
      3.63143532093243E-02   0.00000000000000E+00   0.00000000000000E+00   1.12109574229845E-10   2.81728507281687E-34
      1.12109574229845E-10   4.44987511297474E-18
      9.34429605970415E-02
      0.00000000000000E+00   2.84270324063715E-11   0.00000000000000E+00   0.00000000000000E+00  -1.16230112601391E-10
      1.11691637449748E-33  -1.16230112601391E-10   4.89616429372459E-18   0.00000000000000E+00   0.00000000000000E+00
      0.00000000000000E+00   0.00000000000000E+00   0.00000000000000E+00   0.00000000000000E+00   0.00000000000000E+00
      4.62137219314519E-17   0.00000000000000E+00   0.00000000000000E+00   0.00000000000000E+00   0.00000000000000E+00
     -6.14197640195628E-20  -1.36256255669814E-33  -6.14197640195642E-20  -5.56053054874243E-17   4.01804730567278E-02
      4.01804730256805E-02   0.00000000000000E+00   0.00000000000000E+00   1.16230112662811E-10   2.45646182200658E-34
      1.16230112662811E-10   4.49541926224785E-18
      1.03273094706542E-01
      0.00000000000000E+00   2.93197111478027E-11   0.00000000000000E+00   0.00000000000000E+00  -1.19879863498539E-10
      1.14605028399545E-33  -1.19879863498539E-10   4.89616424076525E-18   0.00000000000000E+00   0.00000000000000E+00
      0.00000000000000E+00   0.00000000000000E+00   0.00000000000000E+00   0.00000000000000E+00   0.00000000000000E+00
      4.61639569314354E-17   0.00000000000000E+00   0.00000000000000E+00   0.00000000000000E+00   0.00000000000000E+00
      3.54546732186892E-21  -1.36261107912549E-33   3.54546732186755E-21  -5.56053677970490E-17   4.44074307238128E-02
      4.44074306917918E-02   0.00000000000000E+00   0.00000000000000E+00   1.19879863494993E-10   2.16560795130046E-34
      1.19879863494993E-10   4.54524662484832E-18
      1.13273094706541E-01
      0.00000000000000E+00   3.00410146745845E-11   0.00000000000000E+00   0.00000000000000E+00  -1.22828994579445E-10
      1.11445804715449E-33  -1.22828994579445E-10   4.89616418895073E-18   0.00000000000000E+00   0.00000000000000E+00
      0.00000000000000E+00   0.00000000000000E+00   0.00000000000000E+00   0.00000000000000E+00   0.00000000000000E+00
      4.61133620351709E-17   0.00000000000000E+00   0.00000000000000E+00   0.00000000000000E+00   0.00000000000000E+00
     -2.11673202056381E-20  -1.30356742153282E-33  -2.11673202056394E-20  -5.56054939423942E-17   4.87074307238128E-02
      4.87074306910055E-02   0.00000000000000E+00   0.00000000000000E+00   1.22828994600612E-10   1.89109374378330E-34
      1.22828994600612E-10   4.59596771827253E-18
      1.23273094706541E-01
      0.00000000000000E+00   3.06071571153239E-11   0.00000000000000E+00   0.00000000000000E+00  -1.25143701313342E-10
      1.15289379764863E-33  -1.25143701313342E-10   4.89616413885173E-18   0.00000000000000E+00   0.00000000000000E+00
      0.00000000000000E+00   0.00000000000000E+00   0.00000000000000E+00   0.00000000000000E+00   0.00000000000000E+00
      4.60627948817210E-17   0.00000000000000E+00   0.00000000000000E+00   0.00000000000000E+00   0.00000000000000E+00
     -7.33403268539430E-20  -1.31743726208468E-33  -7.33403268539444E-20  -5.56056788081232E-17   5.30074307238128E-02
      5.30074306903887E-02   0.00000000000000E+00   0.00000000000000E+00   1.25143701386682E-10   1.64543464436050E-34
      1.25143701386682E-10   4.64671978755034E-18
      1.33273094706542E-01
      0.00000000000000E+00   3.10463948566717E-11   0.00000000000000E+00   0.00000000000000E+00  -1.26939581905133E-10
      1.17585197917182E-33  -1.26939581905133E-10   4.89616409015755E-18   0.00000000000000E+00   0.00000000000000E+00
      0.00000000000000E+00   0.00000000000000E+00   0.00000000000000E+00   0.00000000000000E+00   0.00000000000000E+00
      4.60122531353650E-17   0.00000000000000E+00   0.00000000000000E+00   0.00000000000000E+00   0.00000000000000E+00
     -5.88473705734841E-21  -1.32002036004388E-33  -5.88473705734973E-21  -5.56059181552713E-17   5.73074307238128E-02
      5.73074306899107E-02   0.00000000000000E+00   0.00000000000000E+00   1.26939581911018E-10   1.44168380872062E-34
      1.26939581911018E-10   4.69750092974902E-18
      1.43273094706542E-01
      0.00000000000000E+00   3.13826525695480E-11   0.00000000000000E+00   0.00000000000000E+00  -1.28314380978210E-10
      1.09208538080728E-33  -1.28314380978210E-10   4.89616404260367E-18   0.00000000000000E+00   0.00000000000000E+00
      0.00000000000000E+00   0.00000000000000E+00   0.00000000000000E+00   0.00000000000000E+00   0.00000000000000E+00
      4.59617346776008E-17   0.00000000000000E+00   0.00000000000000E+00   0.00000000000000E+00   0.00000000000000E+00
      6.78540689876891E-21  -1.21467893872434E-33   6.78540689876770E-21  -5.56062080765902E-17   6.16074307238128E-02
      6.16074306895453E-02   0.00000000000000E+00   0.00000000000000E+00   1.28314380971425E-10   1.22593557917062E-34
      1.28314380971425E-10   4.74830935638564E-18
      1.53273094706542E-01
      0.00000000000000E+00   3.16360848750351E-11   0.00000000000000E+00   0.00000000000000E+00  -1.29350625932516E-10
      1.16910039301453E-33  -1.29350625932516E-10   4.89616399596553E-18   0.00000000000000E+00   0.00000000000000E+00
      0.00000000000000E+00   0.00000000000000E+00   0.00000000000000E+00   0.00000000000000E+00   0.00000000000000E+00
      4.59112375843973E-17   0.00000000000000E+00   0.00000000000000E+00   0.00000000000000E+00   0.00000000000000E+00
     -1.68159507907866E-20  -1.27709444190784E-33  -1.68159507907879E-20  -5.56065449669855E-17   6.59074307238128E-02
      6.59074306892706E-02   0.00000000000000E+00   0.00000000000000E+00   1.29350625949332E-10   1.07994048893312E-34
      1.29350625949332E-10   4.79914338662264E-18
      1.63273094706542E-01
      0.00000000000000E+00   3.18236812832713E-11   0.00000000000000E+00   0.00000000000000E+00  -1.30117661623519E-10
      1.14339078858197E-33  -1.30117661623519E-10   4.89616395005362E-18   0.00000000000000E+00   0.00000000000000E+00
      0.00000000000000E+00   0.00000000000000E+00   0.00000000000000E+00   0.00000000000000E+00   0.00000000000000E+00
      4.58607601081083E-17   0.00000000000000E+00   0.00000000000000E+00   0.00000000000000E+00   0.00000000000000E+00
      4.42505344478404E-20  -1.23534469019110E-33   4.42505344478391E-20  -5.56069254991744E-17   7.02074307238129E-02
      7.02074306890681E-02   0.00000000000000E+00   0.00000000000000E+00   1.30117661579269E-10   9.19539016091340E-35
      1.30117661579269E-10   4.85000144101239E-18
      1.73273094706542E-01
      0.00000000000000E+00   3.19595523251328E-11   0.00000000000000E+00   0.00000000000000E+00  -1.30673210239406E-10
      1.13865896404935E-33  -1.30673210239406E-10   4.89616390470966E-18   0.00000000000000E+00   0.00000000000000E+00
      0.00000000000000E+00   0.00000000000000E+00   0.00000000000000E+00   0.00000000000000E+00   0.00000000000000E+00
      4.58103006625281E-17   0.00000000000000E+00   0.00000000000000E+00   0.00000000000000E+00   0.00000000000000E+00
      4.85559883005902E-20  -1.22055797245681E-33   4.85559883005890E-20  -5.56073466027633E-17   7.45074307238129E-02
      7.45074306889225E-02   0.00000000000000E+00   0.00000000000000E+00   1.30673210190850E-10   8.18990084074582E-35
      1.30673210190850E-10   4.90088203552550E-18
      1.83273094706542E-01
      0.00000000000000E+00   3.20552783856098E-11   0.00000000000000E+00   0.00000000000000E+00  -1.31064604255360E-10
      1.15697499917828E-33  -1.31064604255360E-10   4.89616385980348E-18   0.00000000000000E+00   0.00000000000000E+00
      0.00000000000000E+00   0.00000000000000E+00   0.00000000000000E+00   0.00000000000000E+00   0.00000000000000E+00
      4.57598578098568E-17   0.00000000000000E+00   0.00000000000000E+00   0.00000000000000E+00   0.00000000000000E+00
     -2.51692512057665E-20  -1.22581330454493E-33  -2.51692512057678E-20  -5.56078054455197E-17   7.88074307238129E-02
      7.88074306888212E-02   0.00000000000000E+00   0.00000000000000E+00   1.31064604280529E-10   6.88383053666442E-35
      1.31064604280529E-10   4.95178377585953E-18
      1.93273094706542E-01
      0.00000000000000E+00   3.21200695489749E-11   0.00000000000000E+00   0.00000000000000E+00  -1.31329558244033E-10