DF-ISE text

Info {
  version   = 1.0
  type      = xyplot
  datasets  = [
    "time"
    "source OuterVoltage" "source InnerVoltage" "source QuasiFermiPotential" "source DisplacementCurrent" "source eCurrent"
    "source hCurrent" "source TotalCurrent" "source Charge" "gate OuterVoltage" "gate InnerVoltage"
    "gate QuasiFermiPotential" "gate DisplacementCurrent" "gate eCurrent" "gate hCurrent" "gate TotalCurrent"
    "gate Charge" "substrate OuterVoltage" "substrate InnerVoltage" "substrate QuasiFermiPotential" "substrate DisplacementCurrent"
    "substrate eCurrent" "substrate hCurrent" "substrate TotalCurrent" "substrate Charge" "drain OuterVoltage"
    "drain InnerVoltage" "drain QuasiFermiPotential" "drain DisplacementCurrent" "drain eCurrent" "drain hCurrent"
    "drain TotalCurrent" "drain Charge" ]
  functions = [
    Time
    OuterVoltage InnerVoltage QuasiFermiPotential DisplacementCurrent eCurrent
    hCurrent TotalCurrent Charge OuterVoltage InnerVoltage
    QuasiFermiPotential DisplacementCurrent eCurrent hCurrent TotalCurrent
    Charge OuterVoltage InnerVoltage QuasiFermiPotential DisplacementCurrent
    eCurrent hCurrent TotalCurrent Charge OuterVoltage
    InnerVoltage QuasiFermiPotential DisplacementCurrent eCurrent hCurrent
    TotalCurrent Charge ]
}

Data {
      0.00000000000000E+00
      0.00000000000000E+00   0.00000000000000E+00   0.00000000000000E+00   0.00000000000000E+00   2.73363236408654E-22
      1.13066709690730E-33   2.73363236409785E-22   5.28755993966855E-18   0.00000000000000E+00   0.00000000000000E+00
      0.00000000000000E+00   0.00000000000000E+00   0.00000000000000E+00   0.00000000000000E+00   0.00000000000000E+00
      1.29610969047399E-16   0.00000000000000E+00   0.00000000000000E+00   0.00000000000000E+00   0.00000000000000E+00
      9.16008051119902E-22  -2.55845214231202E-33   9.16008051117344E-22  -1.39782898543864E-16   0.00000000000000E+00
      0.00000000000000E+00   0.00000000000000E+00   0.00000000000000E+00  -1.18937128752856E-21   1.42778504540472E-33
     -1.18937128752713E-21   4.88436955679735E-18
      0.00000000000000E+00
      0.00000000000000E+00   0.00000000000000E+00   0.00000000000000E+00   0.00000000000000E+00  -2.92536019184336E-20
      1.18464159573701E-33  -2.92536019184324E-20   5.28753119379744E-18   0.00000000000000E+00   0.00000000000000E+00
      0.00000000000000E+00   0.00000000000000E+00   0.00000000000000E+00   0.00000000000000E+00   0.00000000000000E+00
      1.29609363220381E-16   0.00000000000000E+00   0.00000000000000E+00   0.00000000000000E+00   0.00000000000000E+00
      2.41754305647967E-20  -2.56881339259804E-33   2.41754305647941E-20  -1.39781242639558E-16   0.00000000000000E+00
      0.00000000000000E+00   0.00000000000000E+00   0.00000000000000E+00   5.07817135363689E-21   1.38417179686103E-33
      5.07817135363828E-21   4.88434822538038E-18
      1.00000000000000E-03
      0.00000000000000E+00   2.62446336570508E-14   0.00000000000000E+00   0.00000000000000E+00  -1.08647405864459E-13
      1.16648120798733E-33  -1.08647405864459E-13   5.28753119360634E-18   0.00000000000000E+00   0.00000000000000E+00
      0.00000000000000E+00   0.00000000000000E+00   0.00000000000000E+00   0.00000000000000E+00   0.00000000000000E+00
      1.29608698738987E-16   0.00000000000000E+00   0.00000000000000E+00   0.00000000000000E+00   0.00000000000000E+00
     -3.95930647962290E-20  -2.53456672557406E-23  -3.96184104634847E-20  -1.39781222788969E-16   5.00000000000000E-05
      4.99999999671679E-05   0.00000000000000E+00   0.00000000000000E+00   1.08647445457524E-13   2.53456672545741E-23
      1.08647445482870E-13   4.88499285637588E-18
      2.09333333333333E-03
      0.00000000000000E+00   5.48675161342926E-14   0.00000000000000E+00   0.00000000000000E+00  -2.27190628357973E-13
      1.15592776456380E-33  -2.27190628357973E-13   5.28753119339782E-18   0.00000000000000E+00   0.00000000000000E+00
      0.00000000000000E+00   0.00000000000000E+00   0.00000000000000E+00   0.00000000000000E+00   0.00000000000000E+00
      1.29607972260278E-16   0.00000000000000E+00   0.00000000000000E+00   0.00000000000000E+00   0.00000000000000E+00
     -1.28050176087214E-19  -5.30077358613599E-23  -1.28103183823075E-19  -1.39781201118046E-16   1.04666666666667E-04
      1.04666666598015E-04   0.00000000000000E+00   0.00000000000000E+00   2.27190756408149E-13   5.30077358602040E-23
      2.27190756461157E-13   4.88569766437007E-18
      3.29600000000000E-03
      0.00000000000000E+00   8.62740006469010E-14   0.00000000000000E+00   0.00000000000000E+00  -3.57293462322908E-13
      1.16711735612405E-33  -3.57293462322908E-13   5.28753119316897E-18   0.00000000000000E+00   0.00000000000000E+00
      0.00000000000000E+00   0.00000000000000E+00   0.00000000000000E+00   0.00000000000000E+00   0.00000000000000E+00
      1.29607173158931E-16   0.00000000000000E+00   0.00000000000000E+00   0.00000000000000E+00   0.00000000000000E+00
     -5.41442403295856E-20  -8.33767761887818E-23  -5.42276171057744E-20  -1.39781177319055E-16   1.64800000000000E-04
      1.64799999892037E-04   0.00000000000000E+00   0.00000000000000E+00   3.57293516467149E-13   8.33767761876147E-23
      3.57293516550525E-13   4.88647296695550E-18
      4.61893333333333E-03
      0.00000000000000E+00   1.20753751366069E-13   0.00000000000000E+00   0.00000000000000E+00  -5.00050115139443E-13
      1.17655244137497E-33  -5.00050115139443E-13   5.28753119291785E-18   0.00000000000000E+00   0.00000000000000E+00
      0.00000000000000E+00   0.00000000000000E+00   0.00000000000000E+00   0.00000000000000E+00   0.00000000000000E+00
      1.29606294177927E-16   0.00000000000000E+00   0.00000000000000E+00   0.00000000000000E+00   0.00000000000000E+00
      3.53401490499803E-20  -1.16711201913666E-22   3.52234378480666E-20  -1.39781151187321E-16   2.30946666666667E-04
      2.30946666515565E-04   0.00000000000000E+00   0.00000000000000E+00   5.00050079799294E-13   1.16711201912489E-22
      5.00050079916005E-13   4.88732581647506E-18
      6.07416000000000E-03
      0.00000000000000E+00   1.58568172543849E-13   0.00000000000000E+00   0.00000000000000E+00  -6.56651708925421E-13
      1.17198179458064E-33  -6.56651708925421E-13   5.28753119264236E-18   0.00000000000000E+00   0.00000000000000E+00
      0.00000000000000E+00   0.00000000000000E+00   0.00000000000000E+00   0.00000000000000E+00   0.00000000000000E+00
      1.29605327335629E-16   0.00000000000000E+00   0.00000000000000E+00   0.00000000000000E+00   0.00000000000000E+00
      2.36372118087666E-20  -1.53292739670097E-22   2.34839190690965E-20  -1.39781122499379E-16   3.03708000000000E-04
      3.03707999801577E-04   0.00000000000000E+00   0.00000000000000E+00   6.56651685288209E-13   1.53292739668925E-22
      6.56651685441502E-13   4.88826397110738E-18
      7.67490933333333E-03
      0.00000000000000E+00   2.00036954515520E-13   0.00000000000000E+00   0.00000000000000E+00  -8.28393569778916E-13
      1.18079300872270E-33  -8.28393569778916E-13   5.28753119234021E-18   0.00000000000000E+00   0.00000000000000E+00
      0.00000000000000E+00   0.00000000000000E+00   0.00000000000000E+00   0.00000000000000E+00   0.00000000000000E+00
      1.29604263853538E-16   0.00000000000000E+00   0.00000000000000E+00   0.00000000000000E+00   0.00000000000000E+00
      1.10413367484574E-19  -1.93428246084833E-22   1.10219939238489E-19  -1.39781091011454E-16   3.83745466666667E-04
      3.83745466416350E-04   0.00000000000000E+00   0.00000000000000E+00   8.28393459365549E-13   1.93428246083652E-22
      8.28393459558977E-13   4.88929596557536E-18
      9.43573360000000E-03
      0.00000000000000E+00   2.45490385086041E-13   0.00000000000000E+00   0.00000000000000E+00  -1.01668176729974E-12
      1.13673729220070E-33  -1.01668176729974E-12   5.28753119200893E-18   0.00000000000000E+00   0.00000000000000E+00
      0.00000000000000E+00   0.00000000000000E+00   0.00000000000000E+00   0.00000000000000E+00   0.00000000000000E+00
      1.29603094076881E-16   0.00000000000000E+00   0.00000000000000E+00   0.00000000000000E+00   0.00000000000000E+00
      6.04404666800255E-21  -2.37451603949624E-22   5.80659506405292E-21  -1.39781056457842E-16   4.71786680000000E-04
      4.71786679692790E-04   0.00000000000000E+00   0.00000000000000E+00   1.01668176125569E-12   2.37451603948487E-22
      1.01668176149314E-12   4.89043118895132E-18
      1.13726402933333E-02
      0.00000000000000E+00   2.95316155021124E-13   0.00000000000000E+00   0.00000000000000E+00  -1.22304161885288E-12
      1.17293941429895E-33  -1.22304161885288E-12   5.28753119164583E-18   0.00000000000000E+00   0.00000000000000E+00
      0.00000000000000E+00   0.00000000000000E+00   0.00000000000000E+00   0.00000000000000E+00   0.00000000000000E+00
      1.29601807387297E-16   0.00000000000000E+00   0.00000000000000E+00   0.00000000000000E+00   0.00000000000000E+00
      2.76060773736103E-20  -2.85725685658178E-22   2.73203516879521E-20  -1.39781018549217E-16   5.68632014666667E-04
      5.68632014297109E-04   0.00000000000000E+00   0.00000000000000E+00   1.22304159124681E-12   2.85725685657006E-22
      1.22304159153253E-12   4.89167997027375E-18
      1.35032376560000E-02
      0.00000000000000E+00   3.49910786311214E-13   0.00000000000000E+00   0.00000000000000E+00  -1.44912401763186E-12
      1.10359320631874E-33  -1.44912401763186E-12   5.28753119124799E-18   0.00000000000000E+00   0.00000000000000E+00
      0.00000000000000E+00   0.00000000000000E+00   0.00000000000000E+00   0.00000000000000E+00   0.00000000000000E+00
      1.29600392106864E-16   0.00000000000000E+00   0.00000000000000E+00   0.00000000000000E+00   0.00000000000000E+00
      5.16023916205195E-20  -3.38644367249143E-22   5.12637472532704E-20  -1.39780976970876E-16   6.75161882800000E-04
      6.75161882362123E-04   0.00000000000000E+00   0.00000000000000E+00   1.44912396602947E-12   3.38644367248039E-22
      1.44912396636811E-12   4.89305367276312E-18
      1.58468947549333E-02
      0.00000000000000E+00   4.09704359600733E-13   0.00000000000000E+00   0.00000000000000E+00  -1.69671350179031E-12
      1.17701054665974E-33  -1.69671350179031E-12   5.28753119081227E-18   0.00000000000000E+00   0.00000000000000E+00
      0.00000000000000E+00   0.00000000000000E+00   0.00000000000000E+00   0.00000000000000E+00   0.00000000000000E+00
      1.29598835392603E-16   0.00000000000000E+00   0.00000000000000E+00   0.00000000000000E+00   0.00000000000000E+00
      1.48644119230680E-19  -3.96634570556515E-22   1.48247484660123E-19  -1.39780931380920E-16   7.92344737746667E-04
      7.92344737233967E-04   0.00000000000000E+00   0.00000000000000E+00   1.69671335314620E-12   3.96634570555338E-22
      1.69671335354283E-12   4.89456479750421E-18
      1.84249175637600E-02
      0.00000000000000E+00   4.75148150473462E-13   0.00000000000000E+00   0.00000000000000E+00  -1.96773477494080E-12
      1.18250217371354E-33  -1.96773477494080E-12   5.28753119033526E-18   0.00000000000000E+00   0.00000000000000E+00
      0.00000000000000E+00   0.00000000000000E+00   0.00000000000000E+00   0.00000000000000E+00   0.00000000000000E+00
      1.29597123120521E-16   0.00000000000000E+00   0.00000000000000E+00   0.00000000000000E+00   0.00000000000000E+00
      1.61419145521323E-19  -4.60158303891784E-22   1.60958987217431E-19  -1.39780881408407E-16   9.21245878188001E-04
      9.21245877593410E-04   0.00000000000000E+00   0.00000000000000E+00   1.96773461352166E-12   4.60158303890601E-22
      1.96773461398181E-12   4.89622709755080E-18
      2.12607426534693E-02
      0.00000000000000E+00   5.46751720596407E-13   0.00000000000000E+00   0.00000000000000E+00  -2.26425981764129E-12
      1.15343834417209E-33  -2.26425981764129E-12   5.28753118981331E-18   0.00000000000000E+00   0.00000000000000E+00
      0.00000000000000E+00   0.00000000000000E+00   0.00000000000000E+00   0.00000000000000E+00   0.00000000000000E+00
      1.29595239758170E-16   0.00000000000000E+00   0.00000000000000E+00   0.00000000000000E+00   0.00000000000000E+00
      2.54478431608093E-19  -5.29714663191204E-22   2.53948716944902E-19  -1.39780826651489E-16   1.06303713267347E-03
      1.06303713198926E-03   0.00000000000000E+00   0.00000000000000E+00   2.26425956316286E-12   5.29714663190051E-22
      2.26425956369257E-12   4.89805570350580E-18
      2.43801502521496E-02
      0.00000000000000E+00   6.25038761596145E-13   0.00000000000000E+00   0.00000000000000E+00  -2.58851307961923E-12
      1.15676034133290E-33  -2.58851307961923E-12   5.28753118924249E-18   0.00000000000000E+00   0.00000000000000E+00
      0.00000000000000E+00   0.00000000000000E+00   0.00000000000000E+00   0.00000000000000E+00   0.00000000000000E+00
      1.29593168224588E-16   0.00000000000000E+00   0.00000000000000E+00   0.00000000000000E+00   0.00000000000000E+00
      4.09442391454564E-19  -6.05841745437577E-22   4.08836549709127E-19  -1.39780766675568E-16   1.21900751260748E-03
      1.21900751182529E-03   0.00000000000000E+00   0.00000000000000E+00   2.58851267017684E-12   6.05841745436420E-22
      2.58851267078268E-12   4.90006726173743E-18
      2.78114986106979E-02
      0.00000000000000E+00   7.10600082407215E-13   0.00000000000000E+00   0.00000000000000E+00  -2.94287618714360E-12
      1.15090385295006E-33  -2.94287618714360E-12   5.28753118861856E-18   0.00000000000000E+00   0.00000000000000E+00
      0.00000000000000E+00   0.00000000000000E+00   0.00000000000000E+00   0.00000000000000E+00   0.00000000000000E+00
      1.29590889736386E-16   0.00000000000000E+00   0.00000000000000E+00   0.00000000000000E+00   0.00000000000000E+00
      3.53942349013025E-19  -6.89118414218242E-22   3.53253230598807E-19  -1.39780701011515E-16   1.39057493053490E-03
      1.39057492964561E-03   0.00000000000000E+00   0.00000000000000E+00   2.94287583320125E-12   6.89118414217091E-22
      2.94287583389037E-12   4.90228008651062E-18
      3.15859818051010E-02
      0.00000000000000E+00   8.04059167495659E-13   0.00000000000000E+00   0.00000000000000E+00  -3.32989199263287E-12
      1.19702080142992E-33  -3.32989199263287E-12   5.28753118793704E-18   0.00000000000000E+00   0.00000000000000E+00
      0.00000000000000E+00   0.00000000000000E+00   0.00000000000000E+00   0.00000000000000E+00   0.00000000000000E+00
      1.29588383638622E-16   0.00000000000000E+00   0.00000000000000E+00   0.00000000000000E+00   0.00000000000000E+00
      6.64958047413509E-19  -7.80165843288310E-22   6.64177881570220E-19  -1.39780629154002E-16   1.57929909025505E-03
      1.57929908924880E-03   0.00000000000000E+00   0.00000000000000E+00   3.32989132767482E-12   7.80165843287113E-22
      3.32989132845499E-12   4.90471432744375E-18
      3.57379133189445E-02
      0.00000000000000E+00   9.06046566307305E-13   0.00000000000000E+00   0.00000000000000E+00  -3.75226407627787E-12
      1.21828459335661E-33  -3.75226407627787E-12   5.28753118719314E-18   0.00000000000000E+00   0.00000000000000E+00
      0.00000000000000E+00   0.00000000000000E+00   0.00000000000000E+00   0.00000000000000E+00   0.00000000000000E+00
      1.29585627218979E-16   0.00000000000000E+00   0.00000000000000E+00   0.00000000000000E+00   0.00000000000000E+00
      8.85231861063456E-19  -8.79648747790516E-22   8.84352212315666E-19  -1.39780550560017E-16   1.78689566594722E-03
      1.78689566481332E-03   0.00000000000000E+00   0.00000000000000E+00   3.75226319104601E-12   8.79648747789298E-22
      3.75226319192565E-12   4.90739215384555E-18
      4.03050379841723E-02
      0.00000000000000E+00   1.01727054306562E-12   0.00000000000000E+00   0.00000000000000E+00  -4.21285708570224E-12
      1.17375977711706E-33  -4.21285708570224E-12   5.28753118638176E-18   0.00000000000000E+00   0.00000000000000E+00
      0.00000000000000E+00   0.00000000000000E+00   0.00000000000000E+00   0.00000000000000E+00   0.00000000000000E+00
      1.29582595503604E-16   0.00000000000000E+00   0.00000000000000E+00   0.00000000000000E+00   0.00000000000000E+00
      1.44296049950896E-18  -9.88276194171935E-22   1.44197222331479E-18  -1.39780464647632E-16   2.01525189920861E-03
      2.01525189793551E-03   0.00000000000000E+00   0.00000000000000E+00   4.21285564274174E-12   9.88276194170761E-22
      4.21285564373002E-12   4.91033795764632E-18
      4.53288751159228E-02
      0.00000000000000E+00   1.13843141389181E-12   0.00000000000000E+00   0.00000000000000E+00  -4.71469057709926E-12
      1.14977369751601E-33  -4.71469057709926E-12   5.28753118549755E-18   0.00000000000000E+00   0.00000000000000E+00
      0.00000000000000E+00   0.00000000000000E+00   0.00000000000000E+00   0.00000000000000E+00   0.00000000000000E+00
      1.29579261032828E-16   0.00000000000000E+00   0.00000000000000E+00   0.00000000000000E+00   0.00000000000000E+00
      1.99155895386086E-18  -1.10680185875261E-21   1.99045215200211E-18  -1.39780370795140E-16   2.26644375579614E-03
      2.26644375437136E-03   0.00000000000000E+00   0.00000000000000E+00   4.71468858554030E-12   1.10680185875146E-21
      4.71468858664711E-12   4.91357857681446E-18
      5.08550959608485E-02
      0.00000000000000E+00   1.27033811897128E-12   0.00000000000000E+00   0.00000000000000E+00  -5.26093179007330E-12
      1.17180706916965E-33  -5.26093179007330E-12   5.28753118453489E-18   0.00000000000000E+00   0.00000000000000E+00
      0.00000000000000E+00   0.00000000000000E+00   0.00000000000000E+00   0.00000000000000E+00   0.00000000000000E+00
      1.29575593614799E-16   0.00000000000000E+00   0.00000000000000E+00   0.00000000000000E+00   0.00000000000000E+00
      2.84587906709008E-18  -1.23602358133192E-21   2.84464304350875E-18  -1.39780268340677E-16   2.54275479804242E-03
      2.54275479645254E-03   0.00000000000000E+00   0.00000000000000E+00   5.26092894419424E-12   1.23602358133075E-21
      5.26092894543026E-12   4.91714354134378E-18
      5.69339388902666E-02
      0.00000000000000E+00   1.41376162422309E-12   0.00000000000000E+00   0.00000000000000E+00  -5.85488132242224E-12
      1.14216522521710E-33  -5.85488132242224E-12   5.28753118348787E-18   0.00000000000000E+00   0.00000000000000E+00
      0.00000000000000E+00   0.00000000000000E+00   0.00000000000000E+00   0.00000000000000E+00   0.00000000000000E+00
      1.29571560054868E-16   0.00000000000000E+00   0.00000000000000E+00   0.00000000000000E+00   0.00000000000000E+00
      4.26527001047101E-18  -1.37678203432868E-21   4.26389322843668E-18  -1.39780156582469E-16   2.84669694451333E-03
      2.84669694274391E-03   0.00000000000000E+00   0.00000000000000E+00   5.85487705715222E-12   1.37678203432753E-21
      5.85487705852900E-12   4.92106534411267E-18
      6.36206661126266E-02
      0.00000000000000E+00   1.56952588291469E-12   0.00000000000000E+00   0.00000000000000E+00  -6.49995336163304E-12
      1.17194519392445E-33  -6.49995336163304E-12   5.28753118235042E-18   0.00000000000000E+00   0.00000000000000E+00
      0.00000000000000E+00   0.00000000000000E+00   0.00000000000000E+00   0.00000000000000E+00   0.00000000000000E+00
      1.29567123858388E-16   0.00000000000000E+00   0.00000000000000E+00   0.00000000000000E+00   0.00000000000000E+00
      6.17014497580983E-18  -1.52995830009211E-21   6.16861501750973E-18  -1.39780034779893E-16   3.18103330563133E-03
      3.18103330366693E-03   0.00000000000000E+00   0.00000000000000E+00   6.49994719148807E-12   1.52995830009094E-21
      6.49994719301802E-12   4.92537973915391E-18
      7.09760660572226E-02
      0.00000000000000E+00   1.73847516013041E-12   0.00000000000000E+00   0.00000000000000E+00  -7.19964980826154E-12
      1.18029543629751E-33  -7.19964980826154E-12   5.28753118111628E-18   0.00000000000000E+00   0.00000000000000E+00
      0.00000000000000E+00   0.00000000000000E+00   0.00000000000000E+00   0.00000000000000E+00   0.00000000000000E+00
      1.29562244904309E-16   0.00000000000000E+00   0.00000000000000E+00   0.00000000000000E+00   0.00000000000000E+00
      8.89957543801111E-18  -1.69647011984789E-21   8.89787896789126E-18  -1.39779902155563E-16   3.54880330286113E-03
      3.54880330068522E-03   0.00000000000000E+00   0.00000000000000E+00   7.19964090868611E-12   1.69647011984671E-21
      7.19964091038258E-12   4.93012607013724E-18
      7.90670059962782E-02
      0.00000000000000E+00   1.92148551336361E-12   0.00000000000000E+00   0.00000000000000E+00  -7.95752171282891E-12
      1.19101511880951E-33  -7.95752171282891E-12   5.28753117977907E-18   0.00000000000000E+00   0.00000000000000E+00
      0.00000000000000E+00   0.00000000000000E+00   0.00000000000000E+00   0.00000000000000E+00   0.00000000000000E+00
      1.29556879086903E-16   0.00000000000000E+00   0.00000000000000E+00   0.00000000000000E+00   0.00000000000000E+00
      1.29116792141078E-17  -1.87726654829902E-21   1.29098019475595E-17  -1.39779757898839E-16   3.95335029981391E-03
      3.95335029740888E-03   0.00000000000000E+00   0.00000000000000E+00   7.95750880114969E-12   1.87726654829783E-21
      7.95750880302696E-12   4.93534763215699E-18
      8.79670399292394E-02
      0.00000000000000E+00   2.11938531149411E-12   0.00000000000000E+00   0.00000000000000E+00  -8.77712693357814E-12
      1.16840105507778E-33  -8.77712693357814E-12   5.28753117833241E-18   0.00000000000000E+00   0.00000000000000E+00
      0.00000000000000E+00   0.00000000000000E+00   0.00000000000000E+00   0.00000000000000E+00   0.00000000000000E+00
      1.29550977922040E-16   0.00000000000000E+00   0.00000000000000E+00   0.00000000000000E+00   0.00000000000000E+00
      1.85488092509059E-17  -2.07332071973288E-21   1.85467359301862E-17  -1.39779601170611E-16   4.39835199646197E-03
      4.39835199380915E-03   0.00000000000000E+00   0.00000000000000E+00   8.77710838476888E-12   2.07332071973171E-21
      8.77710838684220E-12   4.94109207023858E-18
      9.77570772554967E-02
      0.00000000000000E+00   2.33305326138269E-12   0.00000000000000E+00   0.00000000000000E+00  -9.66198135310253E-12
      1.16901337692054E-33  -9.66198135310253E-12   5.28753117676996E-18   0.00000000000000E+00   0.00000000000000E+00
      0.00000000000000E+00   0.00000000000000E+00   0.00000000000000E+00   0.00000000000000E+00   0.00000000000000E+00
      1.29544488114699E-16   0.00000000000000E+00   0.00000000000000E+00   0.00000000000000E+00   0.00000000000000E+00
      2.68203133383838E-17  -2.28562040680009E-21   2.68180277179770E-17  -1.39779431109801E-16   4.88785386277484E-03
      4.88785385985448E-03   0.00000000000000E+00   0.00000000000000E+00   9.66195453278919E-12   2.28562040679892E-21
      9.66195453507481E-12   4.94741181833229E-18
      1.07757077255497E-01
      0.00000000000000E+00   2.54701440793236E-12   0.00000000000000E+00   0.00000000000000E+00  -1.05480670348257E-11
      1.15645876655213E-33  -1.05480670348257E-11   5.28753117520467E-18   0.00000000000000E+00   0.00000000000000E+00
      0.00000000000000E+00   0.00000000000000E+00   0.00000000000000E+00   0.00000000000000E+00   0.00000000000000E+00
      1.29537860695599E-16   0.00000000000000E+00   0.00000000000000E+00   0.00000000000000E+00   0.00000000000000E+00
      3.08615707992992E-17  -2.49890147479065E-21   3.08590718978244E-17  -1.39779259905412E-16   5.38785386277483E-03
      5.38785385958655E-03   0.00000000000000E+00   0.00000000000000E+00   1.05480361732549E-11   2.49890147478949E-21
      1.05480361757538E-11   4.95386803460814E-18
      1.17757077255497E-01
      0.00000000000000E+00   2.75672596914123E-12   0.00000000000000E+00   0.00000000000000E+00  -1.14165579019431E-11
      1.13650569381603E-33  -1.14165579019431E-11   5.28753117366981E-18   0.00000000000000E+00   0.00000000000000E+00
      0.00000000000000E+00   0.00000000000000E+00   0.00000000000000E+00   0.00000000000000E+00   0.00000000000000E+00
      1.29531234842873E-16   0.00000000000000E+00   0.00000000000000E+00   0.00000000000000E+00   0.00000000000000E+00
      3.08627653195855E-17  -2.70863709852501E-21   3.08600566824870E-17  -1.39779091202800E-16   5.88785386277483E-03
      5.88785385932393E-03   0.00000000000000E+00   0.00000000000000E+00   1.14165270391778E-11   2.70863709852387E-21
      1.14165270418864E-11   4.96032518625720E-18
      1.27757077255497E-01
      0.00000000000000E+00   2.96227007539931E-12   0.00000000000000E+00   0.00000000000000E+00  -1.22677900068699E-11
      1.12187947609554E-33  -1.22677900068699E-11   5.28753117216483E-18   0.00000000000000E+00   0.00000000000000E+00
      0.00000000000000E+00   0.00000000000000E+00   0.00000000000000E+00   0.00000000000000E+00   0.00000000000000E+00
      1.29524610534108E-16   0.00000000000000E+00   0.00000000000000E+00   0.00000000000000E+00   0.00000000000000E+00
      3.02174868191781E-17  -2.91489075267601E-21   3.02145719284254E-17  -1.39778924973747E-16   6.38785386277483E-03
      6.38785385906650E-03   0.00000000000000E+00   0.00000000000000E+00   1.22677597893831E-11   2.91489075267489E-21
      1.22677597922980E-11   4.96678326747436E-18
      1.37757077255497E-01
      0.00000000000000E+00   3.16373327270896E-12   0.00000000000000E+00   0.00000000000000E+00  -1.31020936407748E-11
      1.15836977483354E-33  -1.31020936407748E-11   5.28753117068916E-18   0.00000000000000E+00   0.00000000000000E+00
      0.00000000000000E+00   0.00000000000000E+00   0.00000000000000E+00   0.00000000000000E+00   0.00000000000000E+00
      1.29517987747258E-16   0.00000000000000E+00   0.00000000000000E+00   0.00000000000000E+00   0.00000000000000E+00
      2.98009052975052E-17  -3.11772478054831E-21   2.97977875727246E-17  -1.39778761190438E-16   6.88785386277483E-03
      6.88785385881418E-03   0.00000000000000E+00   0.00000000000000E+00   1.31020638398695E-11   3.11772478054715E-21
      1.31020638429872E-11   4.97324227249028E-18
      1.47757077255497E-01
      0.00000000000000E+00   3.36118179525568E-12   0.00000000000000E+00   0.00000000000000E+00  -1.39197927657724E-11
      1.14699577130326E-33  -1.39197927657724E-11   5.28753116924227E-18   0.00000000000000E+00   0.00000000000000E+00
      0.00000000000000E+00   0.00000000000000E+00   0.00000000000000E+00   0.00000000000000E+00   0.00000000000000E+00
      1.29511366460643E-16   0.00000000000000E+00   0.00000000000000E+00   0.00000000000000E+00   0.00000000000000E+00
      2.93682901079872E-17  -3.31720041416235E-21   2.93649729075730E-17  -1.39778599825456E-16   7.38785386277483E-03
      7.38785385856686E-03   0.00000000000000E+00   0.00000000000000E+00   1.39197633974823E-11   3.31720041416121E-21
      1.39197634007995E-11   4.97970219557128E-18
      1.57757077255497E-01
      0.00000000000000E+00   3.55469600718452E-12   0.00000000000000E+00   0.00000000000000E+00  -1.47212055172359E-11
      1.20581961330929E-33  -1.47212055172359E-11   5.28753116782362E-18   0.00000000000000E+00   0.00000000000000E+00
      0.00000000000000E+00   0.00000000000000E+00   0.00000000000000E+00   0.00000000000000E+00   0.00000000000000E+00
      1.29504746652939E-16   0.00000000000000E+00   0.00000000000000E+00   0.00000000000000E+00   0.00000000000000E+00
      2.87544312586725E-17  -3.51337779398385E-21   2.87509178808786E-17  -1.39778440851781E-16   7.88785386277484E-03
      7.88785385832445E-03   0.00000000000000E+00   0.00000000000000E+00   1.47211767628046E-11   3.51337779398264E-21
      1.47211767663180E-11   4.98616303101908E-18
      1.67757077255497E-01
      0.00000000000000E+00   3.74435274015065E-12   0.00000000000000E+00   0.00000000000000E+00  -1.55066447570767E-11
      1.17512709064419E-33  -1.55066447570767E-11   5.28753116643270E-18   0.00000000000000E+00   0.00000000000000E+00
      0.00000000000000E+00   0.00000000000000E+00   0.00000000000000E+00   0.00000000000000E+00   0.00000000000000E+00
      1.29498128303174E-16   0.00000000000000E+00   0.00000000000000E+00   0.00000000000000E+00   0.00000000000000E+00
      2.82554609530441E-17  -3.70631598830341E-21   2.82517546370558E-17  -1.39778284242777E-16   8.38785386277484E-03
      8.38785385808685E-03   0.00000000000000E+00   0.00000000000000E+00   1.55066165016157E-11   3.70631598830224E-21
      1.55066165053220E-11   4.99262477317058E-18
      1.77757077255497E-01
      0.00000000000000E+00   3.93023500766653E-12   0.00000000000000E+00   0.00000000000000E+00  -1.62764171926650E-11
      1.14125351944582E-33  -1.62764171926650E-11   5.28753116506897E-18   0.00000000000000E+00   0.00000000000000E+00
      0.00000000000000E+00   0.00000000000000E+00   0.00000000000000E+00   0.00000000000000E+00   0.00000000000000E+00
      1.29491511390718E-16   0.00000000000000E+00   0.00000000000000E+00   0.00000000000000E+00   0.00000000000000E+00
      2.77091864343266E-17  -3.89607301227519E-21   2.77052903613143E-17  -1.39778129972185E-16   8.88785386277484E-03
      8.88785385785397E-03   0.00000000000000E+00   0.00000000000000E+00   1.62763894834785E-11   3.89607301227405E-21
      1.62763894873746E-11   4.99908741639768E-18
      1.87757077255497E-01
      0.00000000000000E+00   4.11239932957045E-12   0.00000000000000E+00   0.00000000000000E+00  -1.70308241141416E-11
      1.14720148214665E-33  -1.70308241141416E-11   5.28753116373196E-18   0.00000000000000E+00   0.00000000000000E+00
      0.00000000000000E+00   0.00000000000000E+00   0.00000000000000E+00   0.00000000000000E+00   0.00000000000000E+00
      1.29484895895282E-16   0.00000000000000E+00   0.00000000000000E+00   0.00000000000000E+00   0.00000000000000E+00
      2.72265333845913E-17  -4.08270584661682E-21   2.72224506787447E-17  -1.39777978014120E-16   9.38785386277484E-03
      9.38785385762573E-03   0.00000000000000E+00   0.00000000000000E+00   1.70307968876082E-11   4.08270584661568E-21
      1.70307968916909E-11   5.00555095510706E-18
      1.97757077255497E-01
      0.00000000000000E+00   4.29093225186479E-12   0.00000000000000E+00   0.00000000000000E+00  -1.77701610722496E-11