DF-ISE text

Info {
  version   = 1.0
  type      = xyplot
  datasets  = [
    "time"
    "source OuterVoltage" "source InnerVoltage" "source QuasiFermiPotential" "source DisplacementCurrent" "source eCurrent"
    "source hCurrent" "source TotalCurrent" "source Charge" "gate OuterVoltage" "gate InnerVoltage"
    "gate QuasiFermiPotential" "gate DisplacementCurrent" "gate eCurrent" "gate hCurrent" "gate TotalCurrent"
    "gate Charge" "substrate OuterVoltage" "substrate InnerVoltage" "substrate QuasiFermiPotential" "substrate DisplacementCurrent"
    "substrate eCurrent" "substrate hCurrent" "substrate TotalCurrent" "substrate Charge" "drain OuterVoltage"
    "drain InnerVoltage" "drain QuasiFermiPotential" "drain DisplacementCurrent" "drain eCurrent" "drain hCurrent"
    "drain TotalCurrent" "drain Charge" ]
  functions = [
    Time
    OuterVoltage InnerVoltage QuasiFermiPotential DisplacementCurrent eCurrent
    hCurrent TotalCurrent Charge OuterVoltage InnerVoltage
    QuasiFermiPotential DisplacementCurrent eCurrent hCurrent TotalCurrent
    Charge OuterVoltage InnerVoltage QuasiFermiPotential DisplacementCurrent
    eCurrent hCurrent TotalCurrent Charge OuterVoltage
    InnerVoltage QuasiFermiPotential DisplacementCurrent eCurrent hCurrent
    TotalCurrent Charge ]
}

Data {
      0.00000000000000E+00
      0.00000000000000E+00   0.00000000000000E+00   0.00000000000000E+00   0.00000000000000E+00   2.54236273395863E-20
      5.48347102730050E-34   2.54236273395868E-20   9.31095390494861E-18   0.00000000000000E+00   0.00000000000000E+00
      0.00000000000000E+00   0.00000000000000E+00   0.00000000000000E+00   0.00000000000000E+00   0.00000000000000E+00
      2.60360136375246E-16   0.00000000000000E+00   0.00000000000000E+00   0.00000000000000E+00   0.00000000000000E+00
     -2.54469006845648E-20  -3.03037682102290E-33  -2.54469006845678E-20  -2.76245048673381E-16   0.00000000000000E+00
      0.00000000000000E+00   0.00000000000000E+00   0.00000000000000E+00   2.32733449784704E-23   2.48202971829285E-33
      2.32733449809525E-23   6.57395839318657E-18
      0.00000000000000E+00
      0.00000000000000E+00   0.00000000000000E+00   0.00000000000000E+00   0.00000000000000E+00  -2.83452734791192E-20
      5.15971857451154E-34  -2.83452734791187E-20   9.31091039327290E-18   0.00000000000000E+00   0.00000000000000E+00
      0.00000000000000E+00   0.00000000000000E+00   0.00000000000000E+00   0.00000000000000E+00   0.00000000000000E+00
      2.60356925581376E-16   0.00000000000000E+00   0.00000000000000E+00   0.00000000000000E+00   0.00000000000000E+00
      2.94945023185797E-20  -2.83499643297098E-33   2.94945023185768E-20  -2.76241766511833E-16   0.00000000000000E+00
      0.00000000000000E+00   0.00000000000000E+00   0.00000000000000E+00  -1.14922883946032E-21   2.31902457551982E-33
     -1.14922883945800E-21   6.57393053718386E-18
      1.00000000000000E-03
      0.00000000000000E+00   1.21226221889204E-14   0.00000000000000E+00   0.00000000000000E+00  -5.33831148755691E-14
      5.25343358517849E-34  -5.33831148755691E-14   9.31091039339287E-18   0.00000000000000E+00   0.00000000000000E+00
      0.00000000000000E+00   0.00000000000000E+00   0.00000000000000E+00   0.00000000000000E+00   0.00000000000000E+00
      2.60355972502779E-16   0.00000000000000E+00   0.00000000000000E+00   0.00000000000000E+00   0.00000000000000E+00
      4.34459592313954E-19  -3.42294609090990E-23   4.34425362853045E-19  -2.76241752091439E-16   5.00000000000000E-05
      4.99999999834995E-05   0.00000000000000E+00   0.00000000000000E+00   5.33826804159767E-14   3.42294609085736E-23
      5.33826804502062E-14   6.57486919526949E-18
      2.09333333333333E-03
      0.00000000000000E+00   2.53482643468042E-14   0.00000000000000E+00   0.00000000000000E+00  -1.11628809714635E-13
      5.36207765381518E-34  -1.11628809714635E-13   9.31091039352376E-18   0.00000000000000E+00   0.00000000000000E+00
      0.00000000000000E+00   0.00000000000000E+00   0.00000000000000E+00   0.00000000000000E+00   0.00000000000000E+00
      2.60354930508446E-16   0.00000000000000E+00   0.00000000000000E+00   0.00000000000000E+00   0.00000000000000E+00
     -4.35131488204566E-20  -7.15879546009339E-23  -4.35847367750576E-20  -2.76241736372892E-16   1.04666666666667E-04
      1.04666666632143E-04   0.00000000000000E+00   0.00000000000000E+00   1.11628853227783E-13   7.15879546003978E-23
      1.11628853299371E-13   6.57589547092499E-18
      3.29600000000000E-03
      0.00000000000000E+00   3.98438366210768E-14   0.00000000000000E+00   0.00000000000000E+00  -1.75556749275966E-13
      5.27325051982685E-34  -1.75556749275966E-13   9.31091039366742E-18   0.00000000000000E+00   0.00000000000000E+00
      0.00000000000000E+00   0.00000000000000E+00   0.00000000000000E+00   0.00000000000000E+00   0.00000000000000E+00
      2.60353784360765E-16   0.00000000000000E+00   0.00000000000000E+00   0.00000000000000E+00   0.00000000000000E+00
      3.32152016061241E-19  -1.12603166340189E-22   3.32039412894901E-19  -2.76241719140006E-16   1.64800000000000E-04
      1.64799999945729E-04   0.00000000000000E+00   0.00000000000000E+00   1.75556417123950E-13   1.12603166339662E-22
      1.75556417236553E-13   6.57702438557340E-18
      4.61893333333333E-03
      0.00000000000000E+00   5.57577035872271E-14   0.00000000000000E+00   0.00000000000000E+00  -2.45703645065373E-13
      5.29381291641187E-34  -2.45703645065373E-13   9.31091039382507E-18   0.00000000000000E+00   0.00000000000000E+00
      0.00000000000000E+00   0.00000000000000E+00   0.00000000000000E+00   0.00000000000000E+00   0.00000000000000E+00
      2.60352523653978E-16   0.00000000000000E+00   0.00000000000000E+00   0.00000000000000E+00   0.00000000000000E+00
     -4.17336561090488E-20  -1.57624357060845E-22  -4.18912804661096E-20  -2.76241700253300E-16   2.30946666666667E-04
      2.30946666590701E-04   0.00000000000000E+00   0.00000000000000E+00   2.45703686799029E-13   1.57624357060315E-22
      2.45703686956653E-13   6.57826620549717E-18
      6.07416000000000E-03
      0.00000000000000E+00   7.32161517589155E-14   0.00000000000000E+00   0.00000000000000E+00  -3.22656549454421E-13
      5.48703419697156E-34  -3.22656549454421E-13   9.31091039399800E-18   0.00000000000000E+00   0.00000000000000E+00
      0.00000000000000E+00   0.00000000000000E+00   0.00000000000000E+00   0.00000000000000E+00   0.00000000000000E+00
      2.60351136943704E-16   0.00000000000000E+00   0.00000000000000E+00   0.00000000000000E+00   0.00000000000000E+00
     -2.43490572581479E-19  -2.07032335305147E-22  -2.43697604916784E-19  -2.76241679561803E-16   3.03708000000000E-04
      3.03707999900247E-04   0.00000000000000E+00   0.00000000000000E+00   3.22656792944993E-13   2.07032335304598E-22
      3.22656793152026E-13   6.57963222410202E-18
      7.67490933333333E-03
      0.00000000000000E+00   9.23657794666848E-14   0.00000000000000E+00   0.00000000000000E+00  -4.07052502377607E-13
      4.96224308502039E-34  -4.07052502377607E-13   9.31091039418766E-18   0.00000000000000E+00   0.00000000000000E+00
      0.00000000000000E+00   0.00000000000000E+00   0.00000000000000E+00   0.00000000000000E+00   0.00000000000000E+00
      2.60349611643512E-16   0.00000000000000E+00   0.00000000000000E+00   0.00000000000000E+00   0.00000000000000E+00
     -5.48322528645143E-19  -2.61241924659013E-22  -5.48583770569802E-19  -2.76241656902430E-16   3.83745466666667E-04
      3.83745466540819E-04   0.00000000000000E+00   0.00000000000000E+00   4.07053050700136E-13   2.61241924658517E-22
      4.07053050961378E-13   6.58113486473136E-18
      9.43573360000000E-03
      0.00000000000000E+00   1.13361133143336E-13   0.00000000000000E+00   0.00000000000000E+00  -4.99584332568649E-13
      5.36004493922948E-34  -4.99584332568649E-13   9.31091039439560E-18   0.00000000000000E+00   0.00000000000000E+00
      0.00000000000000E+00   0.00000000000000E+00   0.00000000000000E+00   0.00000000000000E+00   0.00000000000000E+00
      2.60347933911215E-16   0.00000000000000E+00   0.00000000000000E+00   0.00000000000000E+00   0.00000000000000E+00
     -1.69057881974256E-19  -3.20704540793095E-22  -1.69378586515049E-19  -2.76241632099394E-16   4.71786680000000E-04
      4.71786679845553E-04   0.00000000000000E+00   0.00000000000000E+00   4.99584501626531E-13   3.20704540792559E-22
      4.99584501947235E-13   6.58278779378322E-18
      1.13726402933333E-02
      0.00000000000000E+00   1.36360291711563E-13   0.00000000000000E+00   0.00000000000000E+00  -6.01002527029403E-13
      5.05437828922872E-34  -6.01002527029403E-13   9.31091039462349E-18   0.00000000000000E+00   0.00000000000000E+00
      0.00000000000000E+00   0.00000000000000E+00   0.00000000000000E+00   0.00000000000000E+00   0.00000000000000E+00
      2.60346088523822E-16   0.00000000000000E+00   0.00000000000000E+00   0.00000000000000E+00   0.00000000000000E+00
      5.62829530430547E-19  -3.85910862595345E-22   5.62443619567952E-19  -2.76241604963608E-16   5.68632014666667E-04
      5.68632014480855E-04   0.00000000000000E+00   0.00000000000000E+00   6.01001964199873E-13   3.85910862594839E-22
      6.01001964585784E-13   6.58460604516359E-18
      1.35032376560000E-02
      0.00000000000000E+00   1.61566373340190E-13   0.00000000000000E+00   0.00000000000000E+00  -7.12118994291004E-13
      5.40074026789950E-34  -7.12118994291004E-13   9.31091039487318E-18   0.00000000000000E+00   0.00000000000000E+00
      0.00000000000000E+00   0.00000000000000E+00   0.00000000000000E+00   0.00000000000000E+00   0.00000000000000E+00
      2.60344058740156E-16   0.00000000000000E+00   0.00000000000000E+00   0.00000000000000E+00   0.00000000000000E+00
      4.49532293807907E-19  -4.57393575514042E-22   4.49074900232393E-19  -2.76241575292244E-16   6.75161882800000E-04
      6.75161882579837E-04   0.00000000000000E+00   0.00000000000000E+00   7.12118544758710E-13   4.57393575513502E-22
      7.12118545216103E-13   6.58660615721548E-18
      1.58468947549333E-02
      0.00000000000000E+00   1.89185145565462E-13   0.00000000000000E+00   0.00000000000000E+00  -8.33813540155337E-13
      5.25027145828825E-34  -8.33813540155337E-13   9.31091039514665E-18   0.00000000000000E+00   0.00000000000000E+00
      0.00000000000000E+00   0.00000000000000E+00   0.00000000000000E+00   0.00000000000000E+00   0.00000000000000E+00
      2.60341826149904E-16   0.00000000000000E+00   0.00000000000000E+00   0.00000000000000E+00   0.00000000000000E+00
      2.54881478036417E-19  -5.35730157437599E-22   2.54345747878980E-19  -2.76241542868426E-16   7.92344737746667E-04
      7.92344737488878E-04   0.00000000000000E+00   0.00000000000000E+00   8.33813285273859E-13   5.35730157437074E-22
      8.33813285809589E-13   6.58880632337673E-18
      1.84249175637600E-02
      0.00000000000000E+00   2.19416194066308E-13   0.00000000000000E+00   0.00000000000000E+00  -9.67035583304442E-13
      5.38534442738937E-34  -9.67035583304442E-13   9.31091039544600E-18   0.00000000000000E+00   0.00000000000000E+00
      0.00000000000000E+00   0.00000000000000E+00   0.00000000000000E+00   0.00000000000000E+00   0.00000000000000E+00
      2.60339370507680E-16   0.00000000000000E+00   0.00000000000000E+00   0.00000000000000E+00   0.00000000000000E+00
      8.28275358227024E-19  -6.21545668010205E-22   8.27653812559014E-19  -2.76241507461072E-16   9.21245878188001E-04
      9.21245877889021E-04   0.00000000000000E+00   0.00000000000000E+00   9.67034755029083E-13   6.21545668009666E-22
      9.67034755650629E-13   6.59122655794691E-18
      2.12607426534693E-02
      0.00000000000000E+00   2.52497961910481E-13   0.00000000000000E+00   0.00000000000000E+00  -1.11280479064231E-12
      5.35891214443330E-34  -1.11280479064231E-12   9.31091039577355E-18   0.00000000000000E+00   0.00000000000000E+00
      0.00000000000000E+00   0.00000000000000E+00   0.00000000000000E+00   0.00000000000000E+00   0.00000000000000E+00
      2.60336669550708E-16   0.00000000000000E+00   0.00000000000000E+00   0.00000000000000E+00   0.00000000000000E+00
      4.15964964274109E-19  -7.15515490938890E-22   4.15249448783170E-19  -2.76241468824964E-16   1.06303713267347E-03
      1.06303713232941E-03   0.00000000000000E+00   0.00000000000000E+00   1.11280437467734E-12   7.15515490938354E-22
      1.11280437539286E-12   6.59388887848236E-18
      2.43801502521496E-02
      0.00000000000000E+00   2.88675957145515E-13   0.00000000000000E+00   0.00000000000000E+00  -1.27221957700108E-12
      5.56681300754100E-34  -1.27221957700108E-12   9.31091039613175E-18   0.00000000000000E+00   0.00000000000000E+00
      0.00000000000000E+00   0.00000000000000E+00   0.00000000000000E+00   0.00000000000000E+00   0.00000000000000E+00
      2.60333698798499E-16   0.00000000000000E+00   0.00000000000000E+00   0.00000000000000E+00   0.00000000000000E+00
      2.06589229678336E-19  -8.18367965332396E-22   2.05770861713003E-19  -2.76241426701122E-16   1.21900751260748E-03
      1.21900751221414E-03   0.00000000000000E+00   0.00000000000000E+00   1.27221937041185E-12   8.18367965331839E-22
      1.27221937123021E-12   6.59681750649260E-18
      2.78114986106979E-02
      0.00000000000000E+00   3.28191272206580E-13   0.00000000000000E+00   0.00000000000000E+00  -1.44645589221782E-12
      5.26622118712058E-34  -1.44645589221782E-12   9.31091039652325E-18   0.00000000000000E+00   0.00000000000000E+00
      0.00000000000000E+00   0.00000000000000E+00   0.00000000000000E+00   0.00000000000000E+00   0.00000000000000E+00
      2.60330431332764E-16   0.00000000000000E+00   0.00000000000000E+00   0.00000000000000E+00   0.00000000000000E+00
      6.55464090501507E-19  -9.30886826136952E-22   6.54533203675370E-19  -2.76241380817567E-16   1.39057493053490E-03
      1.39057493008769E-03   0.00000000000000E+00   0.00000000000000E+00   1.44645523675373E-12   9.30886826136426E-22
      1.44645523768461E-12   6.60003908827989E-18
      3.15859818051010E-02
      0.00000000000000E+00   3.71383026123366E-13   0.00000000000000E+00   0.00000000000000E+00  -1.63676745732740E-12
      5.37462461368759E-34  -1.63676745732740E-12   9.31091039695085E-18   0.00000000000000E+00   0.00000000000000E+00
      0.00000000000000E+00   0.00000000000000E+00   0.00000000000000E+00   0.00000000000000E+00   0.00000000000000E+00
      2.60326837555644E-16   0.00000000000000E+00   0.00000000000000E+00   0.00000000000000E+00   0.00000000000000E+00
     -3.67596777661616E-20  -1.05391335501804E-21  -3.78135911211796E-20  -2.76241330890545E-16   1.57929909025505E-03
      1.57929908974899E-03   0.00000000000000E+00   0.00000000000000E+00   1.63676749408708E-12   1.05391335501750E-21
      1.63676749514099E-12   6.60358293795053E-18
      3.57379133189445E-02
      0.00000000000000E+00   4.18521454372656E-13   0.00000000000000E+00   0.00000000000000E+00  -1.84449261748070E-12
      5.64177907456309E-34  -1.84449261748070E-12   9.31091039741756E-18   0.00000000000000E+00   0.00000000000000E+00
      0.00000000000000E+00   0.00000000000000E+00   0.00000000000000E+00   0.00000000000000E+00   0.00000000000000E+00
      2.60322884924137E-16   0.00000000000000E+00   0.00000000000000E+00   0.00000000000000E+00   0.00000000000000E+00
      1.33732178909107E-19  -1.18834812131817E-21   1.32543830787789E-19  -2.76241276626386E-16   1.78689566594722E-03
      1.78689566537693E-03   0.00000000000000E+00   0.00000000000000E+00   1.84449248374852E-12   1.18834812131761E-21
      1.84449248493687E-12   6.60748130483165E-18
      4.03050379841723E-02
      0.00000000000000E+00   4.69916532942525E-13   0.00000000000000E+00   0.00000000000000E+00  -2.07104739537236E-12
      4.98550126543283E-34  -2.07104739537236E-12   9.31091039792656E-18   0.00000000000000E+00   0.00000000000000E+00
      0.00000000000000E+00   0.00000000000000E+00   0.00000000000000E+00   0.00000000000000E+00   0.00000000000000E+00
      2.60318537658397E-16   0.00000000000000E+00   0.00000000000000E+00   0.00000000000000E+00   0.00000000000000E+00
      4.00080791873304E-19  -1.33515216778865E-21   3.98745639705516E-19  -2.76241217724077E-16   2.01525189920861E-03
      2.01525189856826E-03   0.00000000000000E+00   0.00000000000000E+00   2.07104699529157E-12   1.33515216778815E-21
      2.07104699662672E-12   6.61176966775360E-18
      4.53288751159228E-02
      0.00000000000000E+00   5.25940056394170E-13   0.00000000000000E+00   0.00000000000000E+00  -2.31792670193146E-12
      5.13973618350964E-34  -2.31792670193146E-12   9.31091039848120E-18   0.00000000000000E+00   0.00000000000000E+00
      0.00000000000000E+00   0.00000000000000E+00   0.00000000000000E+00   0.00000000000000E+00   0.00000000000000E+00
      2.60313756421389E-16   0.00000000000000E+00   0.00000000000000E+00   0.00000000000000E+00   0.00000000000000E+00
      3.58204428294869E-19  -1.49534746749988E-21   3.56709080827369E-19  -2.76241153878778E-16   2.26644375579614E-03
      2.26644375507944E-03   0.00000000000000E+00   0.00000000000000E+00   2.31792634372704E-12   1.49534746749936E-21
      2.31792634522238E-12   6.61648705890737E-18
      5.08550959608485E-02
      0.00000000000000E+00   5.86917013797710E-13   0.00000000000000E+00   0.00000000000000E+00  -2.58670047498434E-12
      5.13509607812570E-34  -2.58670047498434E-12   9.31091039908502E-18   0.00000000000000E+00   0.00000000000000E+00
      0.00000000000000E+00   0.00000000000000E+00   0.00000000000000E+00   0.00000000000000E+00   0.00000000000000E+00
      2.60308497967189E-16   0.00000000000000E+00   0.00000000000000E+00   0.00000000000000E+00   0.00000000000000E+00
      3.54223614830840E-19  -1.67001644669142E-21   3.52553598384148E-19  -2.76241084786536E-16   2.54275479804242E-03
      2.54275479724259E-03   0.00000000000000E+00   0.00000000000000E+00   2.58670012076072E-12   1.67001644669091E-21
      2.58670012243074E-12   6.62167642026158E-18
      5.69339388902666E-02
      0.00000000000000E+00   6.53250109000900E-13   0.00000000000000E+00   0.00000000000000E+00  -2.87900630163182E-12
      5.46171184065692E-34  -2.87900630163182E-12   9.31091039974167E-18   0.00000000000000E+00   0.00000000000000E+00
      0.00000000000000E+00   0.00000000000000E+00   0.00000000000000E+00   0.00000000000000E+00   0.00000000000000E+00
      2.60302714754608E-16   0.00000000000000E+00   0.00000000000000E+00   0.00000000000000E+00   0.00000000000000E+00
     -1.53305432461858E-19  -1.86030033349845E-21  -1.55165732795357E-19  -2.76241010150173E-16   2.84669694451333E-03
      2.84669694362311E-03   0.00000000000000E+00   0.00000000000000E+00   2.87900645493726E-12   1.86030033349791E-21
      2.87900645679756E-12   6.62738499582560E-18
      6.36206661126266E-02
      0.00000000000000E+00   7.25297006605366E-13   0.00000000000000E+00   0.00000000000000E+00  -3.19654424035613E-12
      5.32871410188159E-34  -3.19654424035613E-12   9.31091040045496E-18   0.00000000000000E+00   0.00000000000000E+00
      0.00000000000000E+00   0.00000000000000E+00   0.00000000000000E+00   0.00000000000000E+00   0.00000000000000E+00
      2.60296354522908E-16   0.00000000000000E+00   0.00000000000000E+00   0.00000000000000E+00   0.00000000000000E+00
      4.89435931633984E-19  -2.06739605496552E-21   4.87368535579019E-19  -2.76240929686742E-16   3.18103330563133E-03
      3.18103330464289E-03   0.00000000000000E+00   0.00000000000000E+00   3.19654375092020E-12   2.06739605496499E-21
      3.19654375298760E-12   6.63366476337946E-18
      7.09760660572226E-02
      0.00000000000000E+00   8.03465709193702E-13   0.00000000000000E+00   0.00000000000000E+00  -3.54105887474153E-12
      5.44907458163559E-34  -3.54105887474153E-12   9.31091040122880E-18   0.00000000000000E+00   0.00000000000000E+00
      0.00000000000000E+00   0.00000000000000E+00   0.00000000000000E+00   0.00000000000000E+00   0.00000000000000E+00
      2.60289359826473E-16   0.00000000000000E+00   0.00000000000000E+00   0.00000000000000E+00   0.00000000000000E+00
      1.93275910842797E-18  -2.29255136537526E-21   1.93046655706259E-18  -2.76240843137361E-16   3.54880330286113E-03
      3.54880330176613E-03   0.00000000000000E+00   0.00000000000000E+00   3.54105694198242E-12   2.29255136537472E-21
      3.54105694427497E-12   6.64057290965976E-18
      7.90670059962782E-02
      0.00000000000000E+00   8.88149206266461E-13   0.00000000000000E+00   0.00000000000000E+00  -3.91432289241177E-12
      5.17556351311277E-34  -3.91432289241177E-12   9.31091040206718E-18   0.00000000000000E+00   0.00000000000000E+00
      0.00000000000000E+00   0.00000000000000E+00   0.00000000000000E+00   0.00000000000000E+00   0.00000000000000E+00
      2.60281667523548E-16   0.00000000000000E+00   0.00000000000000E+00   0.00000000000000E+00   0.00000000000000E+00
      1.39098828532146E-18  -2.53705784904101E-21   1.38845122747242E-18  -2.76240750279008E-16   3.95335029981391E-03
      3.95335029860345E-03   0.00000000000000E+00   0.00000000000000E+00   3.91432150142349E-12   2.53705784904049E-21
      3.91432150396054E-12   6.64817235339275E-18
      8.79670399292394E-02
      0.00000000000000E+00   9.79784643447852E-13   0.00000000000000E+00   0.00000000000000E+00  -4.31812553934007E-12
      5.64269014851659E-34  -4.31812553934007E-12   9.31091040297410E-18   0.00000000000000E+00   0.00000000000000E+00
      0.00000000000000E+00   0.00000000000000E+00   0.00000000000000E+00   0.00000000000000E+00   0.00000000000000E+00
      2.60273208215125E-16   0.00000000000000E+00   0.00000000000000E+00   0.00000000000000E+00   0.00000000000000E+00
      3.27271915582734E-18  -2.80224140240159E-21   3.26991691442494E-18  -2.76240650939114E-16   4.39835199646197E-03
      4.39835199512658E-03   0.00000000000000E+00   0.00000000000000E+00   4.31812226662091E-12   2.80224140240102E-21
      4.31812226942315E-12   6.65653232101389E-18
      9.77570772554967E-02
      0.00000000000000E+00   1.07873763344176E-12   0.00000000000000E+00   0.00000000000000E+00  -4.75422961070028E-12
      5.30857155332625E-34  -4.75422961070028E-12   9.31091040395349E-18   0.00000000000000E+00   0.00000000000000E+00
      0.00000000000000E+00   0.00000000000000E+00   0.00000000000000E+00   0.00000000000000E+00   0.00000000000000E+00
      2.60263905629007E-16   0.00000000000000E+00   0.00000000000000E+00   0.00000000000000E+00   0.00000000000000E+00
      2.84492375253949E-18  -3.08944976640182E-21   2.84183430277309E-18  -2.76240545013363E-16   4.88785386277484E-03
      4.88785386130452E-03   0.00000000000000E+00   0.00000000000000E+00   4.75422676577653E-12   3.08944976640129E-21
      4.75422676886598E-12   6.66572898040248E-18
      1.07757077255497E-01
      0.00000000000000E+00   1.17786989729771E-12   0.00000000000000E+00   0.00000000000000E+00  -5.19111228538463E-12
      5.51184814054714E-34  -5.19111228538463E-12   9.31091040493455E-18   0.00000000000000E+00   0.00000000000000E+00
      0.00000000000000E+00   0.00000000000000E+00   0.00000000000000E+00   0.00000000000000E+00   0.00000000000000E+00
      2.60254406359906E-16   0.00000000000000E+00   0.00000000000000E+00   0.00000000000000E+00   0.00000000000000E+00
      4.27925400009613E-18  -3.37804033775854E-21   4.27587595975837E-18  -2.76240440385950E-16   5.38785386277483E-03
      5.38785386116935E-03   0.00000000000000E+00   0.00000000000000E+00   5.19110800613063E-12   3.37804033775799E-21
      5.19110800950867E-12   6.67512362110973E-18
      1.17757077255497E-01
      0.00000000000000E+00   1.27506459044758E-12   0.00000000000000E+00   0.00000000000000E+00  -5.61948933124268E-12
      5.32716528830059E-34  -5.61948933124268E-12   9.31091040589645E-18   0.00000000000000E+00   0.00000000000000E+00
      0.00000000000000E+00   0.00000000000000E+00   0.00000000000000E+00   0.00000000000000E+00   0.00000000000000E+00
      2.60244909900767E-16   0.00000000000000E+00   0.00000000000000E+00   0.00000000000000E+00   0.00000000000000E+00
      3.77412734475457E-18  -3.66188801297872E-21   3.77046545674159E-18  -2.76240339313533E-16   5.88785386277483E-03
      5.88785386103679E-03   0.00000000000000E+00   0.00000000000000E+00   5.61948555711533E-12   3.66188801297819E-21
      5.61948556077722E-12   6.68451900687084E-18
      1.27757077255497E-01
      0.00000000000000E+00   1.37037646648469E-12   0.00000000000000E+00   0.00000000000000E+00  -6.03952634087384E-12
      5.61668418824564E-34  -6.03952634087384E-12   9.31091040683955E-18   0.00000000000000E+00   0.00000000000000E+00
      0.00000000000000E+00   0.00000000000000E+00   0.00000000000000E+00   0.00000000000000E+00   0.00000000000000E+00
      2.60235416205946E-16   0.00000000000000E+00   0.00000000000000E+00   0.00000000000000E+00   0.00000000000000E+00
      4.42705066926742E-18  -3.94107709900945E-21   4.42310959216841E-18  -2.76240241743082E-16   6.38785386277483E-03
      6.38785386090681E-03   0.00000000000000E+00   0.00000000000000E+00   6.03952191382318E-12   3.94107709900889E-21
      6.03952191776425E-12   6.69391513029605E-18
      1.37757077255497E-01
      0.00000000000000E+00   1.46382848659335E-12   0.00000000000000E+00   0.00000000000000E+00  -6.45138369401927E-12
      5.44619554246385E-34  -6.45138369401927E-12   9.31091040776422E-18   0.00000000000000E+00   0.00000000000000E+00
      0.00000000000000E+00   0.00000000000000E+00   0.00000000000000E+00   0.00000000000000E+00   0.00000000000000E+00
      2.60225925231068E-16   0.00000000000000E+00   0.00000000000000E+00   0.00000000000000E+00   0.00000000000000E+00
      3.84738355592332E-18  -4.21569041216841E-21   3.84316786551115E-18  -2.76240147622901E-16   6.88785386277483E-03
      6.88785386077934E-03   0.00000000000000E+00   0.00000000000000E+00   6.45137984663572E-12   4.21569041216786E-21
      6.45137985085141E-12   6.70331198406843E-18
      1.47757077255497E-01
      0.00000000000000E+00   1.55546127440732E-12   0.00000000000000E+00   0.00000000000000E+00  -6.85521433403125E-12
      5.24963921900762E-34  -6.85521433403125E-12   9.31091040867081E-18   0.00000000000000E+00   0.00000000000000E+00
      0.00000000000000E+00   0.00000000000000E+00   0.00000000000000E+00   0.00000000000000E+00   0.00000000000000E+00
      2.60216436932506E-16   0.00000000000000E+00   0.00000000000000E+00   0.00000000000000E+00   0.00000000000000E+00
      2.78290126627368E-18  -4.48580930435738E-21   2.77841545696932E-18  -2.76240056902118E-16   7.38785386277483E-03
      7.38785386065436E-03   0.00000000000000E+00   0.00000000000000E+00   6.85521155112998E-12   4.48580930435685E-21
      6.85521155561579E-12   6.71270956094248E-18
      1.57757077255497E-01
      0.00000000000000E+00   1.64530132360080E-12   0.00000000000000E+00   0.00000000000000E+00  -7.25117612834536E-12
      5.35696586932466E-34  -7.25117612834536E-12   9.31091040955966E-18   0.00000000000000E+00   0.00000000000000E+00
      0.00000000000000E+00   0.00000000000000E+00   0.00000000000000E+00   0.00000000000000E+00   0.00000000000000E+00
      2.60206951267023E-16   0.00000000000000E+00   0.00000000000000E+00   0.00000000000000E+00   0.00000000000000E+00
      3.07552172392461E-18  -4.75151368881574E-21   3.07077021023579E-18  -2.76239969530325E-16   7.88785386277484E-03
      7.88785386053180E-03   0.00000000000000E+00   0.00000000000000E+00   7.25117305282364E-12   4.75151368881520E-21
      7.25117305757515E-12   6.72210785374314E-18
      1.67757077255497E-01
      0.00000000000000E+00   1.73339632278733E-12   0.00000000000000E+00   0.00000000000000E+00  -7.63941457229974E-12
      5.38780043784816E-34  -7.63941457229974E-12   9.31091041043110E-18   0.00000000000000E+00   0.00000000000000E+00
      0.00000000000000E+00   0.00000000000000E+00   0.00000000000000E+00   0.00000000000000E+00   0.00000000000000E+00
      2.60197468193135E-16   0.00000000000000E+00   0.00000000000000E+00   0.00000000000000E+00   0.00000000000000E+00
      2.95279545580358E-18  -5.01288206542578E-21   2.94778257373816E-18  -2.76239885458933E-16   8.38785386277484E-03
      8.38785386041162E-03   0.00000000000000E+00   0.00000000000000E+00   7.63941161950429E-12   5.01288206542524E-21
      7.63941162451717E-12   6.73150685536700E-18
      1.77757077255497E-01
      0.00000000000000E+00   1.81977629813101E-12   0.00000000000000E+00   0.00000000000000E+00  -8.02007587970889E-12
      5.30839083880017E-34  -8.02007587970889E-12   9.31091041128549E-18   0.00000000000000E+00   0.00000000000000E+00
      0.00000000000000E+00   0.00000000000000E+00   0.00000000000000E+00   0.00000000000000E+00   0.00000000000000E+00
      2.60187987669832E-16   0.00000000000000E+00   0.00000000000000E+00   0.00000000000000E+00   0.00000000000000E+00
      3.08928153874396E-18  -5.26999154557288E-21   3.08401154719839E-18  -2.76239804639897E-16   8.88785386277484E-03
      8.88785386029377E-03   0.00000000000000E+00   0.00000000000000E+00   8.02007279042734E-12   5.26999154557235E-21
      8.02007279569734E-12   6.74090655877936E-18
      1.87757077255497E-01
      0.00000000000000E+00   1.90445449646893E-12   0.00000000000000E+00   0.00000000000000E+00  -8.39330580734925E-12
      5.58551211643198E-34  -8.39330580734925E-12   9.31091041212315E-18   0.00000000000000E+00   0.00000000000000E+00
      0.00000000000000E+00   0.00000000000000E+00   0.00000000000000E+00   0.00000000000000E+00   0.00000000000000E+00
      2.60178509655949E-16   0.00000000000000E+00   0.00000000000000E+00   0.00000000000000E+00   0.00000000000000E+00
      2.60300417136429E-18  -5.52291787657260E-21   2.59748125348772E-18  -2.76239727025085E-16   9.38785386277484E-03
      9.38785386017821E-03   0.00000000000000E+00   0.00000000000000E+00   8.39330320434507E-12   5.52291787657204E-21
      8.39330320986799E-12   6.75030695701316E-18
      1.97757077255497E-01
      0.00000000000000E+00   1.98748213890453E-12   0.00000000000000E+00   0.00000000000000E+00  -8.75925187188996E-12