DF-ISE text

Info {
  version   = 1.0
  type      = xyplot
  datasets  = [
    "time"
    "source OuterVoltage" "source InnerVoltage" "source QuasiFermiPotential" "source DisplacementCurrent" "source eCurrent"
    "source hCurrent" "source TotalCurrent" "source Charge" "gate OuterVoltage" "gate InnerVoltage"
    "gate QuasiFermiPotential" "gate DisplacementCurrent" "gate eCurrent" "gate hCurrent" "gate TotalCurrent"
    "gate Charge" "substrate OuterVoltage" "substrate InnerVoltage" "substrate QuasiFermiPotential" "substrate DisplacementCurrent"
    "substrate eCurrent" "substrate hCurrent" "substrate TotalCurrent" "substrate Charge" "drain OuterVoltage"
    "drain InnerVoltage" "drain QuasiFermiPotential" "drain DisplacementCurrent" "drain eCurrent" "drain hCurrent"
    "drain TotalCurrent" "drain Charge" ]
  functions = [
    Time
    OuterVoltage InnerVoltage QuasiFermiPotential DisplacementCurrent eCurrent
    hCurrent TotalCurrent Charge OuterVoltage InnerVoltage
    QuasiFermiPotential DisplacementCurrent eCurrent hCurrent TotalCurrent
    Charge OuterVoltage InnerVoltage QuasiFermiPotential DisplacementCurrent
    eCurrent hCurrent TotalCurrent Charge OuterVoltage
    InnerVoltage QuasiFermiPotential DisplacementCurrent eCurrent hCurrent
    TotalCurrent Charge ]
}

Data {
      0.00000000000000E+00
      0.00000000000000E+00   0.00000000000000E+00   0.00000000000000E+00   0.00000000000000E+00   2.73442194511926E-22
      1.13882789600233E-33   2.73442194513065E-22   5.28755993966855E-18   0.00000000000000E+00   0.00000000000000E+00
      0.00000000000000E+00   0.00000000000000E+00   0.00000000000000E+00   0.00000000000000E+00   0.00000000000000E+00
      1.29610969047399E-16   0.00000000000000E+00   0.00000000000000E+00   0.00000000000000E+00   0.00000000000000E+00
      9.15929093016631E-22  -2.56661294140705E-33   9.15929093014064E-22  -1.39782898543864E-16   0.00000000000000E+00
      0.00000000000000E+00   0.00000000000000E+00   0.00000000000000E+00  -1.18937128752856E-21   1.42778504540472E-33
     -1.18937128752713E-21   4.88436955679735E-18
      0.00000000000000E+00
      0.00000000000000E+00   0.00000000000000E+00   0.00000000000000E+00   0.00000000000000E+00  -1.03741151641477E-19
      1.19617892505541E-33  -1.03741151641475E-19   5.28753119379744E-18   0.00000000000000E+00   0.00000000000000E+00
      0.00000000000000E+00   0.00000000000000E+00   0.00000000000000E+00   0.00000000000000E+00   0.00000000000000E+00
      1.29609363220381E-16   0.00000000000000E+00   0.00000000000000E+00   0.00000000000000E+00   0.00000000000000E+00
      9.87480189652863E-20  -2.57854424359269E-33   9.87480189652837E-20  -1.39781242639558E-16   0.00000000000000E+00
      0.00000000000000E+00   0.00000000000000E+00   0.00000000000000E+00   4.99313267619041E-21   1.38236531853728E-33
      4.99313267619179E-21   4.88434822538038E-18
      1.00000000000000E-03
      0.00000000000000E+00   4.44086083725382E-13   0.00000000000000E+00   0.00000000000000E+00  -1.83913518551409E-12
      1.19850755132422E-33  -1.83913518551409E-12   5.28753119056161E-18   0.00000000000000E+00   0.00000000000000E+00
      0.00000000000000E+00   0.00000000000000E+00   0.00000000000000E+00   0.00000000000000E+00   0.00000000000000E+00
      1.29597936671880E-16   0.00000000000000E+00   0.00000000000000E+00   0.00000000000000E+00   0.00000000000000E+00
      7.20879840279117E-20  -4.30010344099644E-22   7.16579736838121E-20  -1.39780905129250E-16   8.60000000000000E-04
      8.59999999444266E-04   0.00000000000000E+00   0.00000000000000E+00   1.83913511342611E-12   4.30010344098445E-22
      1.83913511385612E-12   4.89543726680941E-18
      2.08666666666667E-03
      0.00000000000000E+00   9.09782174368727E-13   0.00000000000000E+00   0.00000000000000E+00  -3.76773757014405E-12
      1.16972171418713E-33  -3.76773757014405E-12   5.28753118716588E-18   0.00000000000000E+00   0.00000000000000E+00
      0.00000000000000E+00   0.00000000000000E+00   0.00000000000000E+00   0.00000000000000E+00   0.00000000000000E+00
      1.29585525813515E-16   0.00000000000000E+00   0.00000000000000E+00   0.00000000000000E+00   0.00000000000000E+00
      4.08022332150856E-16  -8.83295507225586E-22   4.08021448855348E-16  -1.39780547677421E-16   1.79453333333333E-03
      1.79453333219476E-03   0.00000000000000E+00   0.00000000000000E+00   3.76732954781190E-12   8.83295507224417E-22
      3.76732954869520E-12   4.90749067674003E-18
      3.28200000000000E-03
      0.00000000000000E+00   1.40241703293302E-12   0.00000000000000E+00   0.00000000000000E+00  -5.80789923043420E-12
      1.23447692814008E-33  -5.80789923043420E-12   5.28753118357070E-18   0.00000000000000E+00   0.00000000000000E+00
      0.00000000000000E+00   0.00000000000000E+00   0.00000000000000E+00   0.00000000000000E+00   0.00000000000000E+00
      1.29571880879738E-16   0.00000000000000E+00   0.00000000000000E+00   0.00000000000000E+00   0.00000000000000E+00
     -2.17474068600112E-20  -1.36563824451484E-21  -2.31130451045261E-20  -1.39780165436265E-16   2.82252000000000E-03
      2.82251999824479E-03   0.00000000000000E+00   0.00000000000000E+00   5.80789925218161E-12   1.36563824451360E-21
      5.80789925354724E-12   4.92075337295640E-18
      4.58889777777778E-03
      0.00000000000000E+00   1.91837603913565E-12   0.00000000000000E+00   0.00000000000000E+00  -7.94470137742452E-12
      1.19374872701437E-33  -7.94470137742452E-12   5.28753117980169E-18   0.00000000000000E+00   0.00000000000000E+00
      0.00000000000000E+00   0.00000000000000E+00   0.00000000000000E+00   0.00000000000000E+00   0.00000000000000E+00
      1.29556970574174E-16   0.00000000000000E+00   0.00000000000000E+00   0.00000000000000E+00   0.00000000000000E+00
      8.11722153648242E-20  -1.87420424983480E-21   7.92980111149894E-20  -1.39779760344431E-16   3.94645208888889E-03
      3.94645208648773E-03   0.00000000000000E+00   0.00000000000000E+00   7.94470129625230E-12   1.87420424983361E-21
      7.94470129812651E-12   4.93525859045500E-18
      6.01777268148148E-03
      0.00000000000000E+00   2.45657206921219E-12   0.00000000000000E+00   0.00000000000000E+00  -1.01735274018153E-11
      1.17938782244915E-33  -1.01735274018153E-11   5.28753117586638E-18   0.00000000000000E+00   0.00000000000000E+00
      0.00000000000000E+00   0.00000000000000E+00   0.00000000000000E+00   0.00000000000000E+00   0.00000000000000E+00
      1.29540678075307E-16   0.00000000000000E+00   0.00000000000000E+00   0.00000000000000E+00   0.00000000000000E+00
      1.08440471080411E-20  -2.40866440676447E-21   8.43538270127659E-21  -1.39779332383662E-16   5.17528450607408E-03
      5.17528450299904E-03   0.00000000000000E+00   0.00000000000000E+00   1.01735273909713E-11   2.40866440676329E-21
      1.01735273933799E-11   4.95112313248833E-18
      7.58000924286420E-03
      0.00000000000000E+00   3.01542963267053E-12   0.00000000000000E+00   0.00000000000000E+00  -1.24879239628333E-11
      1.16959941859468E-33  -1.24879239628333E-11   5.28753117177553E-18   0.00000000000000E+00   0.00000000000000E+00
      0.00000000000000E+00   0.00000000000000E+00   0.00000000000000E+00   0.00000000000000E+00   0.00000000000000E+00
      1.29522875825895E-16   0.00000000000000E+00   0.00000000000000E+00   0.00000000000000E+00   0.00000000000000E+00
     -3.48517185016675E-20  -2.96834266106299E-21  -3.78200611627305E-20  -1.39778881842286E-16   6.51880794886321E-03
      6.51880794508830E-03   0.00000000000000E+00   0.00000000000000E+00   1.24879239976850E-11   2.96834266106182E-21
      1.24879240006534E-11   4.96847484461511E-18
      9.28805454997597E-03
      0.00000000000000E+00   3.59288133980102E-12   0.00000000000000E+00   0.00000000000000E+00  -1.48793607059143E-11
      1.17231893148929E-33  -1.48793607059143E-11   5.28753116754359E-18   0.00000000000000E+00   0.00000000000000E+00
      0.00000000000000E+00   0.00000000000000E+00   0.00000000000000E+00   0.00000000000000E+00   0.00000000000000E+00
      1.29503424547523E-16   0.00000000000000E+00   0.00000000000000E+00   0.00000000000000E+00   0.00000000000000E+00
      4.13573263747237E-20  -3.55217346457203E-21   3.78051529101517E-20  -1.39778409381595E-16   7.98772691297934E-03
      7.98772690848111E-03   0.00000000000000E+00   0.00000000000000E+00   1.48793606645570E-11   3.55217346457086E-21
      1.48793606681092E-11   4.98745366652891E-18
      1.11555174190848E-02
      0.00000000000000E+00   4.18635023922703E-12   0.00000000000000E+00   0.00000000000000E+00  -1.73370783384042E-11
      1.22870262129539E-33  -1.73370783384042E-11   5.28753116318904E-18   0.00000000000000E+00   0.00000000000000E+00
      0.00000000000000E+00   0.00000000000000E+00   0.00000000000000E+00   0.00000000000000E+00   0.00000000000000E+00
      1.29482172158998E-16   0.00000000000000E+00   0.00000000000000E+00   0.00000000000000E+00   0.00000000000000E+00
      2.93020933754944E-21  -4.15866292575554E-21  -1.22845358820610E-21  -1.39777916106704E-16   9.59374498041296E-03
      9.59374497517119E-03   0.00000000000000E+00   0.00000000000000E+00   1.73370783354740E-11   4.15866292575431E-21
      1.73370783396326E-11   5.00821278451739E-18
      1.31972768226439E-02
      0.00000000000000E+00   4.79266150565757E-12   0.00000000000000E+00   0.00000000000000E+00  -1.98479658405652E-11
      1.18156909118327E-33  -1.98479658405652E-11   5.28753115873458E-18   0.00000000000000E+00   0.00000000000000E+00
      0.00000000000000E+00   0.00000000000000E+00   0.00000000000000E+00   0.00000000000000E+00   0.00000000000000E+00
      1.29458952592795E-16   0.00000000000000E+00   0.00000000000000E+00   0.00000000000000E+00   0.00000000000000E+00
      1.04027775900445E-21  -4.78585653082008E-21  -3.74557877181564E-21  -1.39777403645535E-16   1.13496580674737E-02
      1.13496580614721E-02   0.00000000000000E+00   0.00000000000000E+00   1.98479658395249E-11   4.78585653081890E-21
      1.98479658443108E-11   5.03091989400479E-18
      1.54296004372017E-02
      0.00000000000000E+00   5.40805480360198E-12   0.00000000000000E+00   0.00000000000000E+00  -2.23964956405196E-11
      1.15708542203554E-33  -2.23964956405196E-11   5.28753115420731E-18   0.00000000000000E+00   0.00000000000000E+00
      0.00000000000000E+00   0.00000000000000E+00   0.00000000000000E+00   0.00000000000000E+00   0.00000000000000E+00
      1.29433584498377E-16   0.00000000000000E+00   0.00000000000000E+00   0.00000000000000E+00   0.00000000000000E+00
     -1.50666217169185E-21  -5.43131684665296E-21  -6.93797901834481E-21  -1.39776874235013E-16   1.32694563759935E-02
      1.32694563692205E-02   0.00000000000000E+00   0.00000000000000E+00   2.23964956420263E-11   5.43131684665181E-21
      2.23964956474576E-11   5.05575858242939E-18
      1.78702742557850E-02
      0.00000000000000E+00   6.02820989792161E-12   0.00000000000000E+00   0.00000000000000E+00  -2.49647374908902E-11
      1.13140499095930E-33  -2.49647374908902E-11   5.28753114963877E-18   0.00000000000000E+00   0.00000000000000E+00
      0.00000000000000E+00   0.00000000000000E+00   0.00000000000000E+00   0.00000000000000E+00   0.00000000000000E+00
      1.29405869820885E-16   0.00000000000000E+00   0.00000000000000E+00   0.00000000000000E+00   0.00000000000000E+00
      3.69380787549600E-20  -6.09211510777017E-21   3.08459636471898E-20  -1.39776330814074E-16   1.53684358599751E-02
      1.53684358524244E-02   0.00000000000000E+00   0.00000000000000E+00   2.49647374539522E-11   6.09211510776904E-21
      2.49647374600443E-11   5.08292984355148E-18
      2.05387442974361E-02
      0.00000000000000E+00   6.64825813442199E-12   0.00000000000000E+00   0.00000000000000E+00  -2.75324681231570E-11
      1.15297599777219E-33  -2.75324681231570E-11   5.28753114506474E-18   0.00000000000000E+00   0.00000000000000E+00
      0.00000000000000E+00   0.00000000000000E+00   0.00000000000000E+00   0.00000000000000E+00   0.00000000000000E+00
      1.29375592242528E-16   0.00000000000000E+00   0.00000000000000E+00   0.00000000000000E+00   0.00000000000000E+00
     -9.98363685994467E-20  -6.76484095209282E-21  -1.06601209551540E-19  -1.39775777122765E-16   1.76633200957950E-02
      1.76633200874665E-02   0.00000000000000E+00   0.00000000000000E+00   2.75324682229934E-11   6.76484095209167E-21
      2.75324682297582E-11   5.11265373517152E-18
      2.34562715429746E-02
      0.00000000000000E+00   7.26279038795508E-12   0.00000000000000E+00   0.00000000000000E+00  -3.00774002809347E-11
      1.14625300388233E-33  -3.00774002809347E-11   5.28753114052489E-18   0.00000000000000E+00   0.00000000000000E+00
      0.00000000000000E+00   0.00000000000000E+00   0.00000000000000E+00   0.00000000000000E+00   0.00000000000000E+00
      1.29342515472615E-16   0.00000000000000E+00   0.00000000000000E+00   0.00000000000000E+00   0.00000000000000E+00
      8.04630407883172E-20  -7.44563471291045E-21   7.30174060754068E-20  -1.39775217806298E-16   2.01723935269581E-02
      2.01723935178583E-02   0.00000000000000E+00   0.00000000000000E+00   3.00774002004716E-11   7.44563471290930E-21
      3.00774002079173E-11   5.14517119315860E-18
      2.66461013314300E-02
      0.00000000000000E+00   7.86602397256669E-12   0.00000000000000E+00   0.00000000000000E+00  -3.25755410312150E-11
      1.21286848496682E-33  -3.25755410312150E-11   5.28753113606219E-18   0.00000000000000E+00   0.00000000000000E+00
      0.00000000000000E+00   0.00000000000000E+00   0.00000000000000E+00   0.00000000000000E+00   0.00000000000000E+00
      1.29306381371119E-16   0.00000000000000E+00   0.00000000000000E+00   0.00000000000000E+00   0.00000000000000E+00
     -4.85623179687577E-21  -8.13024648780157E-21  -1.29864782846773E-20  -1.39774658522830E-16   2.29156471450298E-02
      2.29156471351725E-02   0.00000000000000E+00   0.00000000000000E+00   3.25755410360712E-11   8.13024648780035E-21
      3.25755410442014E-11   5.18074601564863E-18
      3.01336485668079E-02
      0.00000000000000E+00   8.45187770690673E-12   0.00000000000000E+00   0.00000000000000E+00  -3.50016748793203E-11
      1.23896267304325E-33  -3.50016748793203E-11   5.28753113172203E-18   0.00000000000000E+00   0.00000000000000E+00
      0.00000000000000E+00   0.00000000000000E+00   0.00000000000000E+00   0.00000000000000E+00   0.00000000000000E+00
      1.29266907890725E-16   0.00000000000000E+00   0.00000000000000E+00   0.00000000000000E+00   0.00000000000000E+00
      7.01884879296115E-20  -8.81412557019970E-21   6.13743623594118E-20  -1.39774106054736E-16   2.59149377674548E-02
      2.59149377568614E-02   0.00000000000000E+00   0.00000000000000E+00   3.50016748091318E-11   8.81412557019846E-21
      3.50016748179460E-11   5.21966703228909E-18
      3.39467002108211E-02
      0.00000000000000E+00   9.01413352564175E-12   0.00000000000000E+00   0.00000000000000E+00  -3.73300642941939E-11
      1.12307602299316E-33  -3.73300642941939E-11   5.28753112755101E-18   0.00000000000000E+00   0.00000000000000E+00
      0.00000000000000E+00   0.00000000000000E+00   0.00000000000000E+00   0.00000000000000E+00   0.00000000000000E+00
      1.29223786813550E-16   0.00000000000000E+00   0.00000000000000E+00   0.00000000000000E+00   0.00000000000000E+00
     -1.70728888629529E-21  -9.49254262908861E-21  -1.11998315153839E-20  -1.39773568415394E-16   2.91941621813061E-02
      2.91941621700057E-02   0.00000000000000E+00   0.00000000000000E+00   3.73300642959011E-11   9.49254262908749E-21
      3.73300643053937E-11   5.26225047429265E-18
      3.81156366749421E-02
      0.00000000000000E+00   9.54661133770464E-12   0.00000000000000E+00   0.00000000000000E+00  -3.95352036077109E-11
      1.13849751532298E-33  -3.95352036077109E-11   5.28753112359552E-18   0.00000000000000E+00   0.00000000000000E+00
      0.00000000000000E+00   0.00000000000000E+00   0.00000000000000E+00   0.00000000000000E+00   0.00000000000000E+00
      1.29176681273476E-16   0.00000000000000E+00   0.00000000000000E+00   0.00000000000000E+00   0.00000000000000E+00
     -9.27060699508717E-20  -1.01607451637476E-20  -1.02866815114619E-19  -1.39773054959527E-16   3.27794475404502E-02
      3.27794475284796E-02   0.00000000000000E+00   0.00000000000000E+00   3.95352037004170E-11   1.01607451637464E-20
      3.95352037105778E-11   5.30884256245518E-18
      4.26736738757145E-02
      0.00000000000000E+00   1.00434639892007E-11   0.00000000000000E+00   0.00000000000000E+00  -4.15927745196233E-11
      1.14733624282900E-33  -4.15927745196233E-11   5.28753111990008E-18   0.00000000000000E+00   0.00000000000000E+00
      0.00000000000000E+00   0.00000000000000E+00   0.00000000000000E+00   0.00000000000000E+00   0.00000000000000E+00
      1.29125223032872E-16   0.00000000000000E+00   0.00000000000000E+00   0.00000000000000E+00   0.00000000000000E+00
     -9.62424308269973E-20  -1.08141442011393E-20  -1.07056575028137E-19  -1.39772576483639E-16   3.66993595331145E-02
      3.66993595205178E-02   0.00000000000000E+00   0.00000000000000E+00   4.15927746158657E-11   1.08141442011381E-20
      4.15927746266799E-11   5.35982233086705E-18
      4.76571278818923E-02
      0.00000000000000E+00   1.04993362254527E-11   0.00000000000000E+00   0.00000000000000E+00  -4.34806323573032E-11
      1.15813465553001E-33  -4.34806323573032E-11   5.28753111650544E-18   0.00000000000000E+00   0.00000000000000E+00
      0.00000000000000E+00   0.00000000000000E+00   0.00000000000000E+00   0.00000000000000E+00   0.00000000000000E+00
      1.29069009500455E-16   0.00000000000000E+00   0.00000000000000E+00   0.00000000000000E+00   0.00000000000000E+00
     -3.73204257191991E-21  -1.14485269880328E-20  -1.51805695599527E-20  -1.39772145322932E-16   4.09851299784274E-02
      4.09851299652554E-02   0.00000000000000E+00   0.00000000000000E+00   4.34806323610352E-11   1.14485269880317E-20
      4.34806323724837E-11   5.41560470597217E-18
      5.31057042619801E-02
      0.00000000000000E+00   1.09096667188869E-11   0.00000000000000E+00   0.00000000000000E+00  -4.51798488737452E-11
      1.19471264152223E-33  -4.51798488737452E-11   5.28753111344669E-18   0.00000000000000E+00   0.00000000000000E+00
      0.00000000000000E+00   0.00000000000000E+00   0.00000000000000E+00   0.00000000000000E+00   0.00000000000000E+00
      1.29007600462042E-16   0.00000000000000E+00   0.00000000000000E+00   0.00000000000000E+00   0.00000000000000E+00
     -3.62251856018319E-20  -1.20602867247420E-20  -4.82854723265739E-20  -1.39771775436670E-16   4.56709056653029E-02
      4.56709056516122E-02   0.00000000000000E+00   0.00000000000000E+00   4.51798489099704E-11   1.20602867247408E-20
      4.51798489220307E-11   5.47664386118143E-18
      5.90628144375427E-02
      0.00000000000000E+00   1.12709026677938E-11   0.00000000000000E+00   0.00000000000000E+00  -4.66757853112225E-11
      1.15548206914346E-33  -4.66757853112225E-11   5.28753111075125E-18   0.00000000000000E+00   0.00000000000000E+00
      0.00000000000000E+00   0.00000000000000E+00   0.00000000000000E+00   0.00000000000000E+00   0.00000000000000E+00
      1.28940514496614E-16   0.00000000000000E+00   0.00000000000000E+00   0.00000000000000E+00   0.00000000000000E+00
     -2.23602146319723E-22  -1.26466565155230E-20  -1.28702586618427E-20  -1.39771482476512E-16   5.07940204162867E-02
      5.07940204021383E-02   0.00000000000000E+00   0.00000000000000E+00   4.66757853114462E-11   1.26466565155218E-20
      4.66757853240928E-11   5.54343686914684E-18
      6.55759215628244E-02
      0.00000000000000E+00   1.15807673824376E-11   0.00000000000000E+00   0.00000000000000E+00  -4.79590022154664E-11
      1.18807303756636E-33  -4.79590022154664E-11   5.28753110843712E-18   0.00000000000000E+00   0.00000000000000E+00
      0.00000000000000E+00   0.00000000000000E+00   0.00000000000000E+00   0.00000000000000E+00   0.00000000000000E+00
      1.28867225058136E-16   0.00000000000000E+00   0.00000000000000E+00   0.00000000000000E+00   0.00000000000000E+00
      1.90421687395090E-20  -1.32059311654683E-20   5.83623757404073E-21  -1.39771283842106E-16   5.63952925440290E-02
      5.63952925294867E-02   0.00000000000000E+00   0.00000000000000E+00   4.79590021964242E-11   1.32059311654671E-20
      4.79590022096302E-11   5.61652767553279E-18
      7.26969186864658E-02
      0.00000000000000E+00   1.18384289614486E-11   0.00000000000000E+00   0.00000000000000E+00  -4.90260193553628E-11
      1.17105823695960E-33  -4.90260193553628E-11   5.28753110651148E-18   0.00000000000000E+00   0.00000000000000E+00
      0.00000000000000E+00   0.00000000000000E+00   0.00000000000000E+00   0.00000000000000E+00   0.00000000000000E+00
      1.28787156187837E-16   0.00000000000000E+00   0.00000000000000E+00   0.00000000000000E+00   0.00000000000000E+00
      9.41921239590310E-21  -1.37376578835991E-20  -4.31844548769602E-21  -1.39771198714305E-16   6.25193500703606E-02
      6.25193500554893E-02   0.00000000000000E+00   0.00000000000000E+00   4.90260193459435E-11   1.37376578835979E-20
      4.90260193596812E-11   5.69651141995625E-18
      8.04825422083138E-02
      0.00000000000000E+00   1.20445859547030E-11   0.00000000000000E+00   0.00000000000000E+00  -4.98798057837013E-11
      1.16620523752077E-33  -4.98798057837013E-11   5.28753110496974E-18   0.00000000000000E+00   0.00000000000000E+00
      0.00000000000000E+00   0.00000000000000E+00   0.00000000000000E+00   0.00000000000000E+00   0.00000000000000E+00
      1.28699677826578E-16   0.00000000000000E+00   0.00000000000000E+00   0.00000000000000E+00   0.00000000000000E+00
     -9.24347540373024E-20  -1.42427760990901E-20  -1.06677530136392E-19  -1.39771248063906E-16   6.92149862991498E-02
      6.92149862840133E-02   0.00000000000000E+00   0.00000000000000E+00   4.98798058761360E-11   1.42427760990889E-20
      4.98798058903788E-11   5.78403913235879E-18
      8.89948239255342E-02
      0.00000000000000E+00   1.22015662730401E-11   0.00000000000000E+00   0.00000000000000E+00  -5.05298341642862E-11
      1.20970635254729E-33  -5.05298341642862E-11   5.28753110379538E-18   0.00000000000000E+00   0.00000000000000E+00
      0.00000000000000E+00   0.00000000000000E+00   0.00000000000000E+00   0.00000000000000E+00   0.00000000000000E+00
      1.28604100697262E-16   0.00000000000000E+00   0.00000000000000E+00   0.00000000000000E+00   0.00000000000000E+00
     -1.17450313894391E-19  -1.47236881795382E-20  -1.32174002073930E-19  -1.39771454637421E-16   7.65355485759594E-02
      7.65355485606187E-02   0.00000000000000E+00   0.00000000000000E+00   5.05298342817365E-11   1.47236881795370E-20
      5.05298342964602E-11   5.87982283636264E-18
      9.83015852696952E-02
      0.00000000000000E+00   1.23130693165000E-11   0.00000000000000E+00   0.00000000000000E+00  -5.09915914986745E-11
      1.22095831443312E-33  -5.09915914986745E-11   5.28753110296086E-18   0.00000000000000E+00   0.00000000000000E+00
      0.00000000000000E+00   0.00000000000000E+00   0.00000000000000E+00   0.00000000000000E+00   0.00000000000000E+00
      1.28499670719224E-16   0.00000000000000E+00   0.00000000000000E+00   0.00000000000000E+00   0.00000000000000E+00
      3.72794772245878E-19  -1.51842473702914E-20   3.57610524875586E-19  -1.39771842917060E-16   8.45393633319378E-02
      8.45393633164494E-02   0.00000000000000E+00   0.00000000000000E+00   5.09915911258797E-11   1.51842473702902E-20
      5.09915911410640E-11   5.98464109487632E-18
      1.08301585269695E-01
      0.00000000000000E+00   1.23831521497242E-11   0.00000000000000E+00   0.00000000000000E+00  -5.12818210590875E-11
      1.17953472135880E-33  -5.12818210590875E-11   5.28753110243620E-18   0.00000000000000E+00   0.00000000000000E+00
      0.00000000000000E+00   0.00000000000000E+00   0.00000000000000E+00   0.00000000000000E+00   0.00000000000000E+00
      1.28387529236667E-16   0.00000000000000E+00   0.00000000000000E+00   0.00000000000000E+00   0.00000000000000E+00
     -2.77289433166935E-21  -1.56223967042180E-20  -1.83952910358874E-20  -1.39772427386827E-16   9.31393633319378E-02
      9.31393633163530E-02   0.00000000000000E+00   0.00000000000000E+00   5.12818210618603E-11   1.56223967042168E-20
      5.12818210774827E-11   6.09736704772435E-18
      1.18301585269695E-01
      0.00000000000000E+00   1.24176619266074E-11   0.00000000000000E+00   0.00000000000000E+00  -5.14247493191535E-11
      1.16754542544025E-33  -5.14247493191535E-11   5.28753110217777E-18   0.00000000000000E+00   0.00000000000000E+00
      0.00000000000000E+00   0.00000000000000E+00   0.00000000000000E+00   0.00000000000000E+00   0.00000000000000E+00
      1.28275447032073E-16   0.00000000000000E+00   0.00000000000000E+00   0.00000000000000E+00   0.00000000000000E+00
      3.75143149585207E-20  -1.60174255260400E-20   2.14968894324807E-20  -1.39773164644429E-16   1.01739363331938E-01
      1.01739363316301E-01   0.00000000000000E+00   0.00000000000000E+00   5.14247492816392E-11   1.60174255260388E-20
      5.14247492976566E-11   6.21018651017874E-18
      1.28301585269695E-01
      0.00000000000000E+00   1.24282178895290E-11   0.00000000000000E+00   0.00000000000000E+00  -5.14684376734633E-11
      1.15764641130175E-33  -5.14684376734633E-11   5.28753110209876E-18   0.00000000000000E+00   0.00000000000000E+00
      0.00000000000000E+00   0.00000000000000E+00   0.00000000000000E+00   0.00000000000000E+00   0.00000000000000E+00
      1.28163415366745E-16   0.00000000000000E+00   0.00000000000000E+00   0.00000000000000E+00   0.00000000000000E+00
      2.19770308330792E-18  -1.63810992007804E-20   2.18132198410714E-18  -1.39774036647797E-16   1.10339363331938E-01
      1.10339363316280E-01   0.00000000000000E+00   0.00000000000000E+00   5.14684354757602E-11   1.63810992007793E-20
      5.14684354921413E-11   6.32309017895314E-18
      1.38301585269695E-01
      0.00000000000000E+00   1.24231593640028E-11   0.00000000000000E+00   0.00000000000000E+00  -5.14474510689684E-11
      1.17612373406671E-33  -5.14474510689684E-11   5.28753110213667E-18   0.00000000000000E+00   0.00000000000000E+00
      0.00000000000000E+00   0.00000000000000E+00   0.00000000000000E+00   0.00000000000000E+00   0.00000000000000E+00
      1.28051426986234E-16   0.00000000000000E+00   0.00000000000000E+00   0.00000000000000E+00   0.00000000000000E+00
     -1.19081184454772E-20  -1.67220127491371E-20  -2.86301311946143E-20  -1.39775027795393E-16   1.18939363331938E-01
      1.18939363316278E-01   0.00000000000000E+00   0.00000000000000E+00   5.14474510808765E-11   1.67220127491359E-20
      5.14474510975985E-11   6.43606970702295E-18
      1.48301585269695E-01
      0.00000000000000E+00   1.24086999997499E-11   0.00000000000000E+00   0.00000000000000E+00  -5.13875498463113E-11
      1.17015635071932E-33  -5.13875498463113E-11   5.28753110224494E-18   0.00000000000000E+00   0.00000000000000E+00
      0.00000000000000E+00   0.00000000000000E+00   0.00000000000000E+00   0.00000000000000E+00   0.00000000000000E+00
      1.27939475785116E-16   0.00000000000000E+00   0.00000000000000E+00   0.00000000000000E+00   0.00000000000000E+00
      1.12747264346584E-19  -1.70464416184316E-20   9.57008227281524E-20  -1.39776124490770E-16   1.27539363331938E-01
      1.27539363316288E-01   0.00000000000000E+00   0.00000000000000E+00   5.13875497335640E-11   1.70464416184304E-20
      5.13875497506104E-11   6.54911760340962E-18
      1.58301585269695E-01
      0.00000000000000E+00   1.23897040353525E-11   0.00000000000000E+00   0.00000000000000E+00  -5.13089201492582E-11
      1.16069348538885E-33  -5.13089201492582E-11   5.28753110238706E-18   0.00000000000000E+00   0.00000000000000E+00
      0.00000000000000E+00   0.00000000000000E+00   0.00000000000000E+00   0.00000000000000E+00   0.00000000000000E+00
      1.27827556551635E-16   0.00000000000000E+00   0.00000000000000E+00   0.00000000000000E+00   0.00000000000000E+00
      4.59419128568463E-20  -1.73589647765495E-20   2.85829480802968E-20  -1.39777314797273E-16   1.36139363331938E-01
      1.36139363316304E-01   0.00000000000000E+00   0.00000000000000E+00   5.13089201033163E-11   1.73589647765484E-20
      5.13089201206753E-11   6.66222714325148E-18
      1.68301585269695E-01
      0.00000000000000E+00   1.23702188211049E-11   0.00000000000000E+00   0.00000000000000E+00  -5.12282138152511E-11
      1.16125523155993E-33  -5.12282138152511E-11   5.28753110253293E-18   0.00000000000000E+00   0.00000000000000E+00
      0.00000000000000E+00   0.00000000000000E+00   0.00000000000000E+00   0.00000000000000E+00   0.00000000000000E+00
      1.27715664780745E-16   0.00000000000000E+00   0.00000000000000E+00   0.00000000000000E+00   0.00000000000000E+00
      5.17634051101275E-20  -1.76629208962807E-20   3.41004842138468E-20  -1.39778588170706E-16   1.44739363331938E-01
      1.44739363316320E-01   0.00000000000000E+00   0.00000000000000E+00   5.12282137634877E-11   1.76629208962795E-20
      5.12282137811506E-11   6.77539228742761E-18
      1.78301585269695E-01
      0.00000000000000E+00   1.23535198582601E-11   0.00000000000000E+00   0.00000000000000E+00  -5.11590374321179E-11
      1.18463486893091E-33  -5.11590374321179E-11   5.28753110265795E-18   0.00000000000000E+00   0.00000000000000E+00
      0.00000000000000E+00   0.00000000000000E+00   0.00000000000000E+00   0.00000000000000E+00   0.00000000000000E+00
      1.27603796576640E-16   0.00000000000000E+00   0.00000000000000E+00   0.00000000000000E+00   0.00000000000000E+00
      5.94733341224437E-20  -1.79607422229077E-20   4.15125918995361E-20  -1.39779935289563E-16   1.53339363331938E-01
      1.53339363316332E-01   0.00000000000000E+00   0.00000000000000E+00   5.11590373726446E-11   1.79607422229065E-20
      5.11590373906053E-11   6.88860761026421E-18
      1.88301585269695E-01
      0.00000000000000E+00   1.23420339673743E-11   0.00000000000000E+00   0.00000000000000E+00  -5.11115333290016E-11