DF-ISE text

Info {
  version   = 1.0
  type      = xyplot
  datasets  = [
    "time"
    "source OuterVoltage" "source InnerVoltage" "source QuasiFermiPotential" "source DisplacementCurrent" "source eCurrent"
    "source hCurrent" "source TotalCurrent" "source Charge" "gate OuterVoltage" "gate InnerVoltage"
    "gate QuasiFermiPotential" "gate DisplacementCurrent" "gate eCurrent" "gate hCurrent" "gate TotalCurrent"
    "gate Charge" "substrate OuterVoltage" "substrate InnerVoltage" "substrate QuasiFermiPotential" "substrate DisplacementCurrent"
    "substrate eCurrent" "substrate hCurrent" "substrate TotalCurrent" "substrate Charge" "drain OuterVoltage"
    "drain InnerVoltage" "drain QuasiFermiPotential" "drain DisplacementCurrent" "drain eCurrent" "drain hCurrent"
    "drain TotalCurrent" "drain Charge" ]
  functions = [
    Time
    OuterVoltage InnerVoltage QuasiFermiPotential DisplacementCurrent eCurrent
    hCurrent TotalCurrent Charge OuterVoltage InnerVoltage
    QuasiFermiPotential DisplacementCurrent eCurrent hCurrent TotalCurrent
    Charge OuterVoltage InnerVoltage QuasiFermiPotential DisplacementCurrent
    eCurrent hCurrent TotalCurrent Charge OuterVoltage
    InnerVoltage QuasiFermiPotential DisplacementCurrent eCurrent hCurrent
    TotalCurrent Charge ]
}

Data {
      0.00000000000000E+00
      0.00000000000000E+00   0.00000000000000E+00   0.00000000000000E+00   0.00000000000000E+00   2.54236157308546E-20
      5.45476337385934E-34   2.54236157308552E-20   9.31095390494861E-18   0.00000000000000E+00   0.00000000000000E+00
      0.00000000000000E+00   0.00000000000000E+00   0.00000000000000E+00   0.00000000000000E+00   0.00000000000000E+00
      2.60360136375246E-16   0.00000000000000E+00   0.00000000000000E+00   0.00000000000000E+00   0.00000000000000E+00
     -2.54481108844885E-20  -3.02988411598982E-33  -2.54481108844915E-20  -2.76245048673382E-16   0.00000000000000E+00
      0.00000000000000E+00   0.00000000000000E+00   0.00000000000000E+00   2.44951536338736E-23   2.48440777860388E-33
      2.44951536363580E-23   6.57395839318657E-18
      0.00000000000000E+00
      0.00000000000000E+00   0.00000000000000E+00   0.00000000000000E+00   0.00000000000000E+00  -2.80933188849613E-20
      5.13856464695192E-34  -2.80933188849608E-20   9.31091039327290E-18   0.00000000000000E+00   0.00000000000000E+00
      0.00000000000000E+00   0.00000000000000E+00   0.00000000000000E+00   0.00000000000000E+00   0.00000000000000E+00
      2.60356925581376E-16   0.00000000000000E+00   0.00000000000000E+00   0.00000000000000E+00   0.00000000000000E+00
      2.89832195612711E-20  -2.83340995042211E-33   2.89832195612683E-20  -2.76241766511833E-16   0.00000000000000E+00
      0.00000000000000E+00   0.00000000000000E+00   0.00000000000000E+00  -8.89900676309902E-22   2.31955348572692E-33
     -8.89900676307583E-22   6.57393053718386E-18
      1.00000000000000E-03
      0.00000000000000E+00   1.03395096033846E-13   0.00000000000000E+00   0.00000000000000E+00  -4.55706787930445E-13
      5.33813686884640E-34  -4.55706787930445E-13   9.31091039429698E-18   0.00000000000000E+00   0.00000000000000E+00
      0.00000000000000E+00   0.00000000000000E+00   0.00000000000000E+00   0.00000000000000E+00   0.00000000000000E+00
      2.60348730194400E-16   0.00000000000000E+00   0.00000000000000E+00   0.00000000000000E+00   0.00000000000000E+00
      4.37259771852901E-19  -2.92503917562681E-22   4.36967267935338E-19  -2.76241643855613E-16   4.30000000000000E-04
      4.29999999859123E-04   0.00000000000000E+00   0.00000000000000E+00   4.55706350670673E-13   2.92503917562147E-22
      4.55706350963177E-13   6.58200326691647E-18
      2.08666666666667E-03
      0.00000000000000E+00   2.13806600116864E-13   0.00000000000000E+00   0.00000000000000E+00  -9.42302803418483E-13
      5.35191769553114E-34  -9.42302803418483E-13   9.31091039539043E-18   0.00000000000000E+00   0.00000000000000E+00
      0.00000000000000E+00   0.00000000000000E+00   0.00000000000000E+00   0.00000000000000E+00   0.00000000000000E+00
      2.60339827309322E-16   0.00000000000000E+00   0.00000000000000E+00   0.00000000000000E+00   0.00000000000000E+00
      3.69326003700357E-18  -6.05609647917000E-22   3.69265442735565E-18  -2.76241514027345E-16   8.97266666666667E-04
      8.97266666375335E-04   0.00000000000000E+00   0.00000000000000E+00   9.42299110158445E-13   6.05609647916465E-22
      9.42299110764055E-13   6.59077632263294E-18
      3.28200000000000E-03
      0.00000000000000E+00   3.32938055499758E-13   0.00000000000000E+00   0.00000000000000E+00  -1.46738320413722E-12
      5.44089252548033E-34  -1.46738320413722E-12   9.31091039657025E-18   0.00000000000000E+00   0.00000000000000E+00
      0.00000000000000E+00   0.00000000000000E+00   0.00000000000000E+00   0.00000000000000E+00   0.00000000000000E+00
      2.60330037415424E-16   0.00000000000000E+00   0.00000000000000E+00   0.00000000000000E+00   0.00000000000000E+00
      5.11557832618347E-18  -9.44409078019860E-22   5.11463391710545E-18  -2.76241375317526E-16   1.41126000000000E-03
      1.41125999954633E-03   0.00000000000000E+00   0.00000000000000E+00   1.46737808855889E-12   9.44409078019316E-22
      1.46737808950330E-12   6.60042750553233E-18
      4.59686666666667E-03
      0.00000000000000E+00   4.61268114562974E-13   0.00000000000000E+00   0.00000000000000E+00  -2.03289453015200E-12
      4.79065731125502E-34  -2.03289453015200E-12   9.31091039784083E-18   0.00000000000000E+00   0.00000000000000E+00
      0.00000000000000E+00   0.00000000000000E+00   0.00000000000000E+00   0.00000000000000E+00   0.00000000000000E+00
      2.60319272434051E-16   0.00000000000000E+00   0.00000000000000E+00   0.00000000000000E+00   0.00000000000000E+00
      6.96947592175197E-18  -1.31041642338790E-21   6.96816550532858E-18  -2.76241227622615E-16   1.97665266666667E-03
      1.97665266603811E-03   0.00000000000000E+00   0.00000000000000E+00   2.03288756067608E-12   1.31041642338742E-21
      2.03288756198650E-12   6.61104479072471E-18
      6.04322000000000E-03
      0.00000000000000E+00   5.99165922500291E-13   0.00000000000000E+00   0.00000000000000E+00  -2.64065401775828E-12
      5.96060956140573E-34  -2.64065401775828E-12   9.31091039920622E-18   0.00000000000000E+00   0.00000000000000E+00
      0.00000000000000E+00   0.00000000000000E+00   0.00000000000000E+00   0.00000000000000E+00   0.00000000000000E+00
      2.60307435589133E-16   0.00000000000000E+00   0.00000000000000E+00   0.00000000000000E+00   0.00000000000000E+00
      9.57023994773555E-18  -1.70511374391589E-21   9.56853483399163E-18  -2.76241070970056E-16   2.59858460000000E-03
      2.59858459918349E-03   0.00000000000000E+00   0.00000000000000E+00   2.64064444751833E-12   1.70511374391529E-21
      2.64064444922345E-12   6.62272498171716E-18
      7.63420866666667E-03
      0.00000000000000E+00   7.47017403832473E-13   0.00000000000000E+00   0.00000000000000E+00  -3.29228936575778E-12
      5.32408399820166E-34  -3.29228936575778E-12   9.31091040067002E-18   0.00000000000000E+00   0.00000000000000E+00
      0.00000000000000E+00   0.00000000000000E+00   0.00000000000000E+00   0.00000000000000E+00   0.00000000000000E+00
      2.60294420554736E-16   0.00000000000000E+00   0.00000000000000E+00   0.00000000000000E+00   0.00000000000000E+00
      1.44721880319539E-17  -2.12992037962418E-21   1.44700581115742E-17  -2.76240905554144E-16   3.28270972666667E-03
      3.28270972564861E-03   0.00000000000000E+00   0.00000000000000E+00   3.29227489356975E-12   2.12992037962365E-21
      3.29227489569967E-12   6.63557459873863E-18
      9.38429620000000E-03
      0.00000000000000E+00   9.05143132017273E-13   0.00000000000000E+00   0.00000000000000E+00  -3.98916827048203E-12
      5.13186399733087E-34  -3.98916827048203E-12   9.31091040223529E-18   0.00000000000000E+00   0.00000000000000E+00
      0.00000000000000E+00   0.00000000000000E+00   0.00000000000000E+00   0.00000000000000E+00   0.00000000000000E+00
      2.60280110518234E-16   0.00000000000000E+00   0.00000000000000E+00   0.00000000000000E+00   0.00000000000000E+00
      1.96644677967995E-17  -2.58615670914359E-21   1.96618816400904E-17  -2.76240731777214E-16   4.03524736600000E-03
      4.03524736476638E-03   0.00000000000000E+00   0.00000000000000E+00   3.98914860601423E-12   2.58615670914308E-21
      3.98914860860039E-12   6.64971085674490E-18
      1.13093924866667E-02
      0.00000000000000E+00   1.07375947206061E-12   0.00000000000000E+00   0.00000000000000E+00  -4.73232336912767E-12
      4.92970094207175E-34  -4.73232336912767E-12   9.31091040390430E-18   0.00000000000000E+00   0.00000000000000E+00
      0.00000000000000E+00   0.00000000000000E+00   0.00000000000000E+00   0.00000000000000E+00   0.00000000000000E+00
      2.60264377153518E-16   0.00000000000000E+00   0.00000000000000E+00   0.00000000000000E+00   0.00000000000000E+00
      2.81529015366859E-17  -3.07500190493007E-21   2.81498265347809E-17  -2.76240550299587E-16   4.86303876926667E-03
      4.86303876780312E-03   0.00000000000000E+00   0.00000000000000E+00   4.73229521622614E-12   3.07500190492957E-21
      4.73229521930114E-12   6.66526274216583E-18
      1.34269984020000E-02
      0.00000000000000E+00   1.25301920415035E-12   0.00000000000000E+00   0.00000000000000E+00  -5.52235007240421E-12
      4.99001927000363E-34  -5.52235007240421E-12   9.31091040567833E-18   0.00000000000000E+00   0.00000000000000E+00
      0.00000000000000E+00   0.00000000000000E+00   0.00000000000000E+00   0.00000000000000E+00   0.00000000000000E+00
      2.60247079492895E-16   0.00000000000000E+00   0.00000000000000E+00   0.00000000000000E+00   0.00000000000000E+00
      3.82692917849098E-17  -3.59744554440214E-21   3.82656943393654E-17  -2.76240362096924E-16   5.77360931286000E-03
      5.77360931115202E-03   0.00000000000000E+00   0.00000000000000E+00   5.52231180311242E-12   3.59744554440164E-21
      5.52231180670987E-12   6.68237219835172E-18
      1.57563649088667E-02
      0.00000000000000E+00   1.44293999073595E-12   0.00000000000000E+00   0.00000000000000E+00  -6.35932538898988E-12
      5.37620493584856E-34  -6.35932538898988E-12   9.31091040755754E-18   0.00000000000000E+00   0.00000000000000E+00
      0.00000000000000E+00   0.00000000000000E+00   0.00000000000000E+00   0.00000000000000E+00   0.00000000000000E+00
      2.60228062685300E-16   0.00000000000000E+00   0.00000000000000E+00   0.00000000000000E+00   0.00000000000000E+00
      5.39436279981981E-17  -4.15423320589661E-21   5.39394737649922E-17  -2.76240168523517E-16   6.77523691081267E-03
      6.77523690884567E-03   0.00000000000000E+00   0.00000000000000E+00   6.35927144536188E-12   4.15423320589607E-21
      6.35927144951612E-12   6.70119543065954E-18
      1.83186680664200E-02
      0.00000000000000E+00   1.64337170099696E-12   0.00000000000000E+00   0.00000000000000E+00  -7.24268526071991E-12
      5.55176867254514E-34  -7.24268526071991E-12   9.31091040954059E-18   0.00000000000000E+00   0.00000000000000E+00
      0.00000000000000E+00   0.00000000000000E+00   0.00000000000000E+00   0.00000000000000E+00   0.00000000000000E+00
      2.60207156634327E-16   0.00000000000000E+00   0.00000000000000E+00   0.00000000000000E+00   0.00000000000000E+00
      7.43517485647409E-17  -4.74580655008649E-21   7.43470027581908E-17  -2.76239971387072E-16   7.87702726856060E-03
      7.87702726632020E-03   0.00000000000000E+00   0.00000000000000E+00   7.24261090897135E-12   4.74580655008594E-21
      7.24261091371716E-12   6.72190434320460E-18
      2.11372015397287E-02
      0.00000000000000E+00   1.85403703447684E-12   0.00000000000000E+00   0.00000000000000E+00  -8.17110612725248E-12
      5.26729890154072E-34  -8.17110612725248E-12   9.31091041162445E-18   0.00000000000000E+00   0.00000000000000E+00
      0.00000000000000E+00   0.00000000000000E+00   0.00000000000000E+00   0.00000000000000E+00   0.00000000000000E+00
      2.60184174502000E-16   0.00000000000000E+00   0.00000000000000E+00   0.00000000000000E+00   0.00000000000000E+00
      1.01206809116700E-16  -5.37223887782572E-21   1.01201436877822E-16  -2.76239773034086E-16   9.08899666208333E-03
      9.08899665955550E-03   0.00000000000000E+00   0.00000000000000E+00   8.17100492044337E-12   5.37223887782520E-21
      8.17100492581561E-12   6.74468812046355E-18
      2.42375883603682E-02
      0.00000000000000E+00   2.07443349448834E-12   0.00000000000000E+00   0.00000000000000E+00  -9.14241384684890E-12
      5.52739032671180E-34  -9.14241384684890E-12   9.31091041380421E-18   0.00000000000000E+00   0.00000000000000E+00
      0.00000000000000E+00   0.00000000000000E+00   0.00000000000000E+00   0.00000000000000E+00   0.00000000000000E+00
      2.60158911053619E-16   0.00000000000000E+00   0.00000000000000E+00   0.00000000000000E+00   0.00000000000000E+00
      1.37823562916917E-16  -6.03316777742615E-21   1.37817529749140E-16  -2.76239576435591E-16   1.04221629949583E-02
      1.04221629921297E-02   0.00000000000000E+00   0.00000000000000E+00   9.14227602328598E-12   6.03316777742559E-21
      9.14227602931915E-12   6.76975496816832E-18
      2.76480138630717E-02
      0.00000000000000E+00   2.30384575182823E-12   0.00000000000000E+00   0.00000000000000E+00  -1.01534670551105E-11
      5.43588548722507E-34  -1.01534670551105E-11   9.31091041607273E-18   0.00000000000000E+00   0.00000000000000E+00
      0.00000000000000E+00   0.00000000000000E+00   0.00000000000000E+00   0.00000000000000E+00   0.00000000000000E+00
      2.60131140841450E-16   0.00000000000000E+00   0.00000000000000E+00   0.00000000000000E+00   0.00000000000000E+00
      1.85534940976228E-16  -6.72772723416672E-21   1.85528213248993E-16  -2.76239385286878E-16   1.18886459611208E-02
      1.18886459579791E-02   0.00000000000000E+00   0.00000000000000E+00   1.01532815201695E-11   6.72772723416618E-21
      1.01532815268972E-11   6.79733402935599E-18
      3.13994819160455E-02
      0.00000000000000E+00   2.54131296924571E-12   0.00000000000000E+00   0.00000000000000E+00  -1.12000227476319E-11
      5.15404987851641E-34  -1.12000227476319E-11   9.31091041842047E-18   0.00000000000000E+00   0.00000000000000E+00
      0.00000000000000E+00   0.00000000000000E+00   0.00000000000000E+00   0.00000000000000E+00   0.00000000000000E+00
      2.60100616210879E-16   0.00000000000000E+00   0.00000000000000E+00   0.00000000000000E+00   0.00000000000000E+00
      2.48076469651243E-16  -7.45448246640318E-21   2.48069015168777E-16  -2.76239204122194E-16   1.35017772238996E-02
      1.35017772204336E-02   0.00000000000000E+00   0.00000000000000E+00   1.11997746711623E-11   7.45448246640266E-21
      1.11997746786168E-11   6.82767749289566E-18
      3.55260967743168E-02
      0.00000000000000E+00   2.78561643772783E-12   0.00000000000000E+00   0.00000000000000E+00  -1.22766754203996E-11
      4.99892695476898E-34  -1.22766754203996E-11   9.31091042083521E-18   0.00000000000000E+00   0.00000000000000E+00
      0.00000000000000E+00   0.00000000000000E+00   0.00000000000000E+00   0.00000000000000E+00   0.00000000000000E+00
      2.60067065086901E-16   0.00000000000000E+00   0.00000000000000E+00   0.00000000000000E+00   0.00000000000000E+00
      3.28098874210467E-16  -8.21137175180172E-21   3.28090662838715E-16  -2.76239038421148E-16   1.52762216129562E-02
      1.52762216091565E-02   0.00000000000000E+00   0.00000000000000E+00   1.22763473215254E-11   8.21137175180122E-21
      1.22763473297367E-11   6.86106291341173E-18
      4.00653731184151E-02
      0.00000000000000E+00   3.03523895286574E-12   0.00000000000000E+00   0.00000000000000E+00  -1.33767942505422E-11
      5.72556035862287E-34  -1.33767942505422E-11   9.31091042330208E-18   0.00000000000000E+00   0.00000000000000E+00
      0.00000000000000E+00   0.00000000000000E+00   0.00000000000000E+00   0.00000000000000E+00   0.00000000000000E+00
      2.60030188538730E-16   0.00000000000000E+00   0.00000000000000E+00   0.00000000000000E+00   0.00000000000000E+00
     -4.13993840664546E-20  -8.99566056419244E-21  -5.03950446306470E-20  -2.76238894725344E-16   1.72281104409185E-02
      1.72281104367777E-02   0.00000000000000E+00   0.00000000000000E+00   1.33767942919416E-11   8.99566056419186E-21
      1.33767943009373E-11   6.89779576331264E-18
      4.50283152546293E-02
      0.00000000000000E+00   3.28692797459082E-12   0.00000000000000E+00   0.00000000000000E+00  -1.44860181270093E-11
      5.52719299732247E-34  -1.44860181270093E-11   9.31091042578881E-18   0.00000000000000E+00   0.00000000000000E+00
      0.00000000000000E+00   0.00000000000000E+00   0.00000000000000E+00   0.00000000000000E+00   0.00000000000000E+00
      2.59989903627968E-16   0.00000000000000E+00   0.00000000000000E+00   0.00000000000000E+00   0.00000000000000E+00
      2.11780494734476E-19  -9.79917945826904E-21   2.01981315276207E-19  -2.76238781313169E-16   1.93621755594906E-02
      1.93621755550057E-02   0.00000000000000E+00   0.00000000000000E+00   1.44860179152288E-11   9.79917945826848E-21
      1.44860179250280E-11   6.93796725941279E-18
      5.04544653235568E-02
      0.00000000000000E+00   3.53875652966665E-12   0.00000000000000E+00   0.00000000000000E+00  -1.55958167214528E-11
      5.55018184608333E-34  -1.55958167214528E-11   9.31091042827630E-18   0.00000000000000E+00   0.00000000000000E+00
      0.00000000000000E+00   0.00000000000000E+00   0.00000000000000E+00   0.00000000000000E+00   0.00000000000000E+00
      2.59945896159280E-16   0.00000000000000E+00   0.00000000000000E+00   0.00000000000000E+00   0.00000000000000E+00
     -4.32164672798934E-19  -1.06179512076944E-20  -4.42782624006629E-19  -2.76238706419028E-16   2.16954200891294E-02
      2.16954200843000E-02   0.00000000000000E+00   0.00000000000000E+00   1.55958171536175E-11   1.06179512076938E-20
      1.55958171642354E-11   6.98189983147242E-18
      5.63870560655842E-02
      0.00000000000000E+00   3.78858039672843E-12   0.00000000000000E+00   0.00000000000000E+00  -1.66968220373616E-11
      5.73748881737762E-34  -1.66968220373616E-11   9.31091043074350E-18   0.00000000000000E+00   0.00000000000000E+00
      0.00000000000000E+00   0.00000000000000E+00   0.00000000000000E+00   0.00000000000000E+00   0.00000000000000E+00
      2.59897822818756E-16   0.00000000000000E+00   0.00000000000000E+00   0.00000000000000E+00   0.00000000000000E+00
      3.69065625621432E-19  -1.14474845425660E-20   3.57618141078866E-19  -2.76238679415045E-16   2.42464341082012E-02
      2.42464341030298E-02   0.00000000000000E+00   0.00000000000000E+00   1.66968216682960E-11   1.14474845425654E-20
      1.66968216797435E-11   7.02994616554602E-18
      6.28733552768676E-02
      0.00000000000000E+00   4.03411935355050E-12   0.00000000000000E+00   0.00000000000000E+00  -1.77789490758551E-11
      5.26914166950002E-34  -1.77789490758551E-11   9.31091043316788E-18   0.00000000000000E+00   0.00000000000000E+00
      0.00000000000000E+00   0.00000000000000E+00   0.00000000000000E+00   0.00000000000000E+00   0.00000000000000E+00
      2.59845308411075E-16   0.00000000000000E+00   0.00000000000000E+00   0.00000000000000E+00   0.00000000000000E+00
     -1.60941208807388E-19  -1.22828496218915E-20  -1.73224058429279E-19  -2.76238710875323E-16   2.70355427690531E-02
      2.70355427635453E-02   0.00000000000000E+00   0.00000000000000E+00   1.77789492367963E-11   1.22828496218910E-20
      1.77789492490792E-11   7.08249203107862E-18
      6.99650424145373E-02
      0.00000000000000E+00   4.27298543696545E-12   0.00000000000000E+00   0.00000000000000E+00  -1.88316183763949E-11
      5.06392294605160E-34  -1.88316183763949E-11   9.31091043552573E-18   0.00000000000000E+00   0.00000000000000E+00
      0.00000000000000E+00   0.00000000000000E+00   0.00000000000000E+00   0.00000000000000E+00   0.00000000000000E+00
      2.59787942816523E-16   0.00000000000000E+00   0.00000000000000E+00   0.00000000000000E+00   0.00000000000000E+00
     -9.76903089224253E-20  -1.31187901162560E-20  -1.10809099038681E-19  -2.76238812619393E-16   3.00849682382511E-02
      3.00849682324159E-02   0.00000000000000E+00   0.00000000000000E+00   1.88316184740852E-11   1.31187901162555E-20
      1.88316184872040E-11   7.13995936734416E-18
      7.77186203517229E-02
      0.00000000000000E+00   4.50272003400803E-12   0.00000000000000E+00   0.00000000000000E+00  -1.98440476395632E-11
      4.92664954126479E-34  -1.98440476395632E-11   9.31091043779296E-18   0.00000000000000E+00   0.00000000000000E+00
      0.00000000000000E+00   0.00000000000000E+00   0.00000000000000E+00   0.00000000000000E+00   0.00000000000000E+00
      2.59725277640640E-16   0.00000000000000E+00   0.00000000000000E+00   0.00000000000000E+00   0.00000000000000E+00
     -7.25998487915330E-19  -1.39498745143729E-20  -7.39948362429703E-19  -2.76238997730543E-16   3.34190067512409E-02
      3.34190067450904E-02   0.00000000000000E+00   0.00000000000000E+00   1.98440483655617E-11   1.39498745143724E-20
      1.98440483795116E-11   7.20280965210957E-18
      8.61958655630459E-02
      0.00000000000000E+00   4.72091133720408E-12   0.00000000000000E+00   0.00000000000000E+00  -2.08055962177103E-11
      5.46461431204858E-34  -2.08055962177103E-11   9.31091043994579E-18   0.00000000000000E+00   0.00000000000000E+00
      0.00000000000000E+00   0.00000000000000E+00   0.00000000000000E+00   0.00000000000000E+00   0.00000000000000E+00
      2.59656822538560E-16   0.00000000000000E+00   0.00000000000000E+00   0.00000000000000E+00   0.00000000000000E+00
     -5.22254726095641E-20  -1.47706869510715E-20  -6.69961595606356E-20  -2.76239280555965E-16   3.70642221921097E-02
      3.70642221856594E-02   0.00000000000000E+00   0.00000000000000E+00   2.08055962699358E-11   1.47706869510709E-20
      2.08055962847065E-11   7.27154757745944E-18
      9.54643203274256E-02
      0.00000000000000E+00   4.92524379942900E-12   0.00000000000000E+00   0.00000000000000E+00  -2.17061149963173E-11
      5.18697327570418E-34  -2.17061149963173E-11   9.31091044196158E-18   0.00000000000000E+00   0.00000000000000E+00
      0.00000000000000E+00   0.00000000000000E+00   0.00000000000000E+00   0.00000000000000E+00   0.00000000000000E+00
      2.59582041187107E-16   0.00000000000000E+00   0.00000000000000E+00   0.00000000000000E+00   0.00000000000000E+00
      9.76021370113995E-20  -1.55760547013622E-20   8.20260823100373E-20  -2.76239676689084E-16   4.10496577407930E-02
      4.10496577340616E-02   0.00000000000000E+00   0.00000000000000E+00   2.17061148987151E-11   1.55760547013617E-20
      2.17061149142912E-11   7.34672506001449E-18
      1.05464320327426E-01
      0.00000000000000E+00   5.11137599060478E-12   0.00000000000000E+00   0.00000000000000E+00  -2.25263874795710E-11
      5.50503033588315E-34  -2.25263874795710E-11   9.31091044379739E-18   0.00000000000000E+00   0.00000000000000E+00
      0.00000000000000E+00   0.00000000000000E+00   0.00000000000000E+00   0.00000000000000E+00   0.00000000000000E+00
      2.59501422776524E-16   0.00000000000000E+00   0.00000000000000E+00   0.00000000000000E+00   0.00000000000000E+00
      5.40794058358835E-19  -1.63515446558843E-20   5.24442513702951E-19  -2.76240195397076E-16   4.53496577407930E-02
      4.53496577338050E-02   0.00000000000000E+00   0.00000000000000E+00   2.25263869387770E-11   1.63515446558838E-20
      2.25263869551285E-11   7.42786217675518E-18
      1.15464320327426E-01
      0.00000000000000E+00   5.26722414593133E-12   0.00000000000000E+00   0.00000000000000E+00  -2.32131932522122E-11
      5.07955314830365E-34  -2.32131932522122E-11   9.31091044533426E-18   0.00000000000000E+00   0.00000000000000E+00
      0.00000000000000E+00   0.00000000000000E+00   0.00000000000000E+00   0.00000000000000E+00   0.00000000000000E+00
      2.59420864157052E-16   0.00000000000000E+00   0.00000000000000E+00   0.00000000000000E+00   0.00000000000000E+00
     -3.28185666329018E-20  -1.70436732078130E-20  -4.98622398407148E-20  -2.76240798702186E-16   4.96496577407930E-02
      4.96496577335897E-02   0.00000000000000E+00   0.00000000000000E+00   2.32131932850308E-11   1.70436732078125E-20
      2.32131933020745E-11   7.50902409979853E-18
      1.25464320327426E-01
      0.00000000000000E+00   5.39745645080171E-12   0.00000000000000E+00   0.00000000000000E+00  -2.37871282727349E-11
      4.90723662716916E-34  -2.37871282727349E-11   9.31091044661838E-18   0.00000000000000E+00   0.00000000000000E+00
      0.00000000000000E+00   0.00000000000000E+00   0.00000000000000E+00   0.00000000000000E+00   0.00000000000000E+00
      2.59340358146306E-16   0.00000000000000E+00   0.00000000000000E+00   0.00000000000000E+00   0.00000000000000E+00
     -7.66958223182076E-19  -1.76644460336102E-20  -7.84622669215686E-19  -2.76241477379993E-16   5.39496577407930E-02
      5.39496577334093E-02   0.00000000000000E+00   0.00000000000000E+00   2.37871290396931E-11   1.76644460336097E-20
      2.37871290573575E-11   7.59020878706749E-18
      1.35464320327426E-01
      0.00000000000000E+00   5.50606020318220E-12   0.00000000000000E+00   0.00000000000000E+00  -2.42657451366418E-11
      5.44253298707558E-34  -2.42657451366418E-11   9.31091044768910E-18   0.00000000000000E+00   0.00000000000000E+00
      0.00000000000000E+00   0.00000000000000E+00   0.00000000000000E+00   0.00000000000000E+00   0.00000000000000E+00
      2.59259898453153E-16   0.00000000000000E+00   0.00000000000000E+00   0.00000000000000E+00   0.00000000000000E+00
      3.65470810670209E-20  -1.82241480415864E-20   1.83229330254345E-20  -2.76242223266386E-16   5.82496577407930E-02
      5.82496577332582E-02   0.00000000000000E+00   0.00000000000000E+00   2.42657451000948E-11   1.82241480415859E-20
      2.42657451183189E-11   7.67141436554595E-18
      1.45464320327426E-01
      0.00000000000000E+00   5.59638420349096E-12   0.00000000000000E+00   0.00000000000000E+00  -2.46638230459606E-11
      5.20428192276793E-34  -2.46638230459606E-11   9.31091044857957E-18   0.00000000000000E+00   0.00000000000000E+00
      0.00000000000000E+00   0.00000000000000E+00   0.00000000000000E+00   0.00000000000000E+00   0.00000000000000E+00
      2.59179479602241E-16   0.00000000000000E+00   0.00000000000000E+00   0.00000000000000E+00   0.00000000000000E+00
      4.85601216748263E-20  -1.87315889190834E-20   2.98285327557429E-20  -2.76243029168255E-16   6.25496577407930E-02
      6.25496577331322E-02   0.00000000000000E+00   0.00000000000000E+00   2.46638229974005E-11   1.87315889190829E-20
      2.46638230161321E-11   7.75263911743421E-18
      1.55464320327426E-01
      0.00000000000000E+00   5.67129330103090E-12   0.00000000000000E+00   0.00000000000000E+00  -2.49939152274500E-11
      5.43728408176398E-34  -2.49939152274500E-11   9.31091044931790E-18   0.00000000000000E+00   0.00000000000000E+00
      0.00000000000000E+00   0.00000000000000E+00   0.00000000000000E+00   0.00000000000000E+00   0.00000000000000E+00
      2.59099096797599E-16   0.00000000000000E+00   0.00000000000000E+00   0.00000000000000E+00   0.00000000000000E+00
     -3.39294461524055E-19  -1.91943138000236E-20  -3.58488775324079E-19  -2.76243888714130E-16   6.68496577407930E-02
      6.68496577330273E-02   0.00000000000000E+00   0.00000000000000E+00   2.49939155667444E-11   1.91943138000230E-20
      2.49939155859387E-11   7.83388146721218E-18
      1.65464320327426E-01
      0.00000000000000E+00   5.73318164082673E-12   0.00000000000000E+00   0.00000000000000E+00  -2.52666546079785E-11
      5.46837382257951E-34  -2.52666546079785E-11   9.31091044992790E-18   0.00000000000000E+00   0.00000000000000E+00
      0.00000000000000E+00   0.00000000000000E+00   0.00000000000000E+00   0.00000000000000E+00   0.00000000000000E+00
      2.59018745840305E-16   0.00000000000000E+00   0.00000000000000E+00   0.00000000000000E+00   0.00000000000000E+00
      1.10630743560534E-19  -1.96187839836169E-20   9.10119595769167E-20  -2.76244796260063E-16   7.11496577407930E-02
      7.11496577329402E-02   0.00000000000000E+00   0.00000000000000E+00   2.52666544973478E-11   1.96187839836164E-20
      2.52666545169666E-11   7.91513996983091E-18
      1.75464320327426E-01
      0.00000000000000E+00   5.78407952144422E-12   0.00000000000000E+00   0.00000000000000E+00  -2.54909995148148E-11
      5.40759923244707E-34  -2.54909995148148E-11   9.31091045042963E-18   0.00000000000000E+00   0.00000000000000E+00
      0.00000000000000E+00   0.00000000000000E+00   0.00000000000000E+00   0.00000000000000E+00   0.00000000000000E+00
      2.58938423060571E-16   0.00000000000000E+00   0.00000000000000E+00   0.00000000000000E+00   0.00000000000000E+00
      3.57097716840834E-19  -2.00105319413813E-20   3.37087184899452E-19  -2.76245746810868E-16   7.54496577407930E-02
      7.54496577328680E-02   0.00000000000000E+00   0.00000000000000E+00   2.54909991577170E-11   2.00105319413807E-20
      2.54909991777276E-11   7.99641329986766E-18
      1.85464320327426E-01
      0.00000000000000E+00   5.82575142158471E-12   0.00000000000000E+00   0.00000000000000E+00  -2.56746397886024E-11
      5.27439338014401E-34  -2.56746397886024E-11   9.31091045084033E-18   0.00000000000000E+00   0.00000000000000E+00
      0.00000000000000E+00   0.00000000000000E+00   0.00000000000000E+00   0.00000000000000E+00   0.00000000000000E+00
      2.58858125214933E-16   0.00000000000000E+00   0.00000000000000E+00   0.00000000000000E+00   0.00000000000000E+00
      2.99505043938956E-16  -2.03742942531709E-20   2.99484669644703E-16  -2.76246735907259E-16   7.97496577407930E-02
      7.97496577328086E-02   0.00000000000000E+00   0.00000000000000E+00   2.56743402835584E-11   2.03742942531704E-20
      2.56743403039327E-11   8.07770024148603E-18
      1.95464320327426E-01
      0.00000000000000E+00   5.85966862328849E-12   0.00000000000000E+00   0.00000000000000E+00  -2.58241108348800E-11