DF-ISE text

Info {
  version   = 1.0
  type      = xyplot
  datasets  = [
    "time"
    "source OuterVoltage" "source InnerVoltage" "source QuasiFermiPotential" "source DisplacementCurrent" "source eCurrent"
    "source hCurrent" "source TotalCurrent" "source Charge" "gate OuterVoltage" "gate InnerVoltage"
    "gate QuasiFermiPotential" "gate DisplacementCurrent" "gate eCurrent" "gate hCurrent" "gate TotalCurrent"
    "gate Charge" "substrate OuterVoltage" "substrate InnerVoltage" "substrate QuasiFermiPotential" "substrate DisplacementCurrent"
    "substrate eCurrent" "substrate hCurrent" "substrate TotalCurrent" "substrate Charge" "drain OuterVoltage"
    "drain InnerVoltage" "drain QuasiFermiPotential" "drain DisplacementCurrent" "drain eCurrent" "drain hCurrent"
    "drain TotalCurrent" "drain Charge" ]
  functions = [
    Time
    OuterVoltage InnerVoltage QuasiFermiPotential DisplacementCurrent eCurrent
    hCurrent TotalCurrent Charge OuterVoltage InnerVoltage
    QuasiFermiPotential DisplacementCurrent eCurrent hCurrent TotalCurrent
    Charge OuterVoltage InnerVoltage QuasiFermiPotential DisplacementCurrent
    eCurrent hCurrent TotalCurrent Charge OuterVoltage
    InnerVoltage QuasiFermiPotential DisplacementCurrent eCurrent hCurrent
    TotalCurrent Charge ]
}

Data {
      0.00000000000000E+00
      0.00000000000000E+00   0.00000000000000E+00   0.00000000000000E+00   0.00000000000000E+00   1.20542846680611E-22
     -9.89625679997925E-35   1.20542846680512E-22   4.61275140581164E-18   0.00000000000000E+00   0.00000000000000E+00
      0.00000000000000E+00   0.00000000000000E+00   0.00000000000000E+00   0.00000000000000E+00   0.00000000000000E+00
      2.17311606537624E-18   0.00000000000000E+00   0.00000000000000E+00   0.00000000000000E+00   0.00000000000000E+00
     -6.89168205172368E-21   2.06741455863436E-34  -6.89168205172347E-21  -1.10646905263037E-17   0.00000000000000E+00
      0.00000000000000E+00   0.00000000000000E+00   0.00000000000000E+00   6.77113920504306E-21  -1.07778887863644E-34
      6.77113920504296E-21   4.27882305511582E-18
      0.00000000000000E+00
      0.00000000000000E+00   8.83122473149296E-19   0.00000000000000E+00   0.00000000000000E+00  -7.95863093021834E-20
     -9.71968248539563E-35  -7.95863093021835E-20   4.61087198456802E-18   0.00000000000000E+00   0.00000000000000E+00
      0.00000000000000E+00   0.00000000000000E+00   0.00000000000000E+00   0.00000000000000E+00   0.00000000000000E+00
      2.16804571207868E-18   0.00000000000000E+00   0.00000000000000E+00   0.00000000000000E+00   0.00000000000000E+00
      1.64220335541732E-19   2.24524095605402E-34   1.64220335541732E-19  -1.10561819555013E-17   0.00000000000000E+00
      0.00000000000000E+00   0.00000000000000E+00   0.00000000000000E+00  -8.46340262395484E-20  -1.27327270751446E-34
     -8.46340262395486E-20   4.27726425885456E-18
      1.00000000000000E-03
      0.00000000000000E+00   2.24171013773991E-12   0.00000000000000E+00   0.00000000000000E+00  -9.55392137566931E-12
     -1.12401482614352E-34  -9.55392137566931E-12   4.61084496587813E-18   0.00000000000000E+00   0.00000000000000E+00
      0.00000000000000E+00   0.00000000000000E+00   0.00000000000000E+00   0.00000000000000E+00   0.00000000000000E+00
      2.16746005482296E-18   0.00000000000000E+00   0.00000000000000E+00   0.00000000000000E+00   0.00000000000000E+00
     -1.17880359647232E-19   2.36644477951898E-34  -1.17880359647232E-19  -1.10561543388854E-17   5.00000000000000E-05
      4.99999977457616E-05   0.00000000000000E+00   0.00000000000000E+00   9.55392149354967E-12  -1.24242995337546E-34
      9.55392149354967E-12   4.27784931818433E-18
      2.09333333333333E-03
      0.00000000000000E+00   4.68491526519852E-12   0.00000000000000E+00   0.00000000000000E+00  -1.99665249307286E-11
     -9.64919338779831E-35  -1.99665249307286E-11   4.61081542574787E-18   0.00000000000000E+00   0.00000000000000E+00
      0.00000000000000E+00   0.00000000000000E+00   0.00000000000000E+00   0.00000000000000E+00   0.00000000000000E+00
      2.16681974392120E-18   0.00000000000000E+00   0.00000000000000E+00   0.00000000000000E+00   0.00000000000000E+00
      6.00851430516179E-20   2.16576391488809E-34   6.00851430516181E-20  -1.10561241652608E-17   1.04666666666667E-04
      1.04666661955597E-04   0.00000000000000E+00   0.00000000000000E+00   1.99665248706435E-11  -1.20084457610826E-34
      1.99665248706435E-11   4.27848899559176E-18
      3.29600000000000E-03
      0.00000000000000E+00   7.36269626709751E-12   0.00000000000000E+00   0.00000000000000E+00  -3.13788895123628E-11
     -1.07092013244756E-34  -3.13788895123628E-11   4.61078293197269E-18   0.00000000000000E+00   0.00000000000000E+00
      0.00000000000000E+00   0.00000000000000E+00   0.00000000000000E+00   0.00000000000000E+00   0.00000000000000E+00
      2.16611541120902E-18   0.00000000000000E+00   0.00000000000000E+00   0.00000000000000E+00   0.00000000000000E+00
     -3.47183746482856E-19   2.20525486880807E-34  -3.47183746482856E-19  -1.10560909990412E-17   1.64800000000000E-04
      1.64799992596204E-04   0.00000000000000E+00   0.00000000000000E+00   3.13788898595466E-11  -1.13433473636050E-34
      3.13788898595466E-11   4.27919265585946E-18
      4.61893333333333E-03
      0.00000000000000E+00   1.02962242384857E-11   0.00000000000000E+00   0.00000000000000E+00  -4.38811357300925E-11
     -9.70991156302278E-35  -4.38811357300925E-11   4.61074718926620E-18   0.00000000000000E+00   0.00000000000000E+00
      0.00000000000000E+00   0.00000000000000E+00   0.00000000000000E+00   0.00000000000000E+00   0.00000000000000E+00
      2.16534065644393E-18   0.00000000000000E+00   0.00000000000000E+00   0.00000000000000E+00   0.00000000000000E+00
     -9.11914278086738E-20   2.10985599276231E-34  -9.11914278086736E-20  -1.10560545461465E-17   2.30946666666667E-04
      2.30946656312997E-04   0.00000000000000E+00   0.00000000000000E+00   4.38811358212840E-11  -1.13886483646003E-34
      4.38811358212840E-11   4.27996670043639E-18
      6.07416000000000E-03
      0.00000000000000E+00   1.35082819729254E-11   0.00000000000000E+00   0.00000000000000E+00  -5.75704974562204E-11
     -6.74327653033635E-35  -5.75704974562204E-11   4.61070787282959E-18   0.00000000000000E+00   0.00000000000000E+00
      0.00000000000000E+00   0.00000000000000E+00   0.00000000000000E+00   0.00000000000000E+00   0.00000000000000E+00
      2.16448843976285E-18   0.00000000000000E+00   0.00000000000000E+00   0.00000000000000E+00   0.00000000000000E+00
     -1.76261652218000E-19   1.82777841797111E-34  -1.76261652218000E-19  -1.10560144841697E-17   3.03708000000000E-04
      3.03707986416340E-04   0.00000000000000E+00   0.00000000000000E+00   5.75704976324820E-11  -1.15345076493748E-34
      5.75704976324820E-11   4.28081817157723E-18
      7.67490933333333E-03
      0.00000000000000E+00   1.70234458857219E-11   0.00000000000000E+00   0.00000000000000E+00  -7.25515547187766E-11
     -1.05713030238975E-34  -7.25515547187766E-11   4.61066462540376E-18   0.00000000000000E+00   0.00000000000000E+00
      0.00000000000000E+00   0.00000000000000E+00   0.00000000000000E+00   0.00000000000000E+00   0.00000000000000E+00
      2.16355101780374E-18   0.00000000000000E+00   0.00000000000000E+00   0.00000000000000E+00   0.00000000000000E+00
     -2.93689060488011E-20   2.34503256190251E-34  -2.93689060488009E-20  -1.10559704597681E-17   3.83745466666667E-04
      3.83745449548254E-04   0.00000000000000E+00   0.00000000000000E+00   7.25515547481455E-11  -1.28790225951276E-34
      7.25515547481455E-11   4.28175481656055E-18
      9.43573360000000E-03
      0.00000000000000E+00   2.08680206628603E-11   0.00000000000000E+00   0.00000000000000E+00  -8.89364396025116E-11
     -8.25299750629053E-35  -8.89364396025116E-11   4.61061705402747E-18   0.00000000000000E+00   0.00000000000000E+00
      0.00000000000000E+00   0.00000000000000E+00   0.00000000000000E+00   0.00000000000000E+00   0.00000000000000E+00
      2.16251987345692E-18   0.00000000000000E+00   0.00000000000000E+00   0.00000000000000E+00   0.00000000000000E+00
      1.57622369489606E-19   1.79845607025433E-34   1.57622369489606E-19  -1.10559220858417E-17   4.71786680000000E-04
      4.71786659015581E-04   0.00000000000000E+00   0.00000000000000E+00   8.89364394448892E-11  -9.73156319625278E-35
      8.89364394448892E-11   4.28278515835736E-18
      1.13726402933333E-02
      0.00000000000000E+00   2.50701249238859E-11   0.00000000000000E+00   0.00000000000000E+00  -1.06844986784229E-10
     -1.02168434057885E-34  -1.06844986784229E-10   4.61056472647201E-18   0.00000000000000E+00   0.00000000000000E+00
      0.00000000000000E+00   0.00000000000000E+00   0.00000000000000E+00   0.00000000000000E+00   0.00000000000000E+00
      2.16138563861098E-18   0.00000000000000E+00   0.00000000000000E+00   0.00000000000000E+00   0.00000000000000E+00
     -2.16306048600826E-19   2.29906441768477E-34  -2.16306048600825E-19  -1.10558689384834E-17   5.68632014666667E-04
      5.68631989456723E-04   0.00000000000000E+00   0.00000000000000E+00   1.06844987000535E-10  -1.27738007710592E-34
      1.06844987000535E-10   4.28391857340044E-18
      1.35032376560000E-02
      0.00000000000000E+00   2.96597185987001E-11   0.00000000000000E+00   0.00000000000000E+00  -1.26404782330441E-10
     -1.05130538211173E-34  -1.26404782330441E-10   4.61050716732042E-18   0.00000000000000E+00   0.00000000000000E+00
      0.00000000000000E+00   0.00000000000000E+00   0.00000000000000E+00   0.00000000000000E+00   0.00000000000000E+00
      2.16013800919988E-18   0.00000000000000E+00   0.00000000000000E+00   0.00000000000000E+00   0.00000000000000E+00
     -1.51706108650701E-19   2.29676568623012E-34  -1.51706108650701E-19  -1.10558105536931E-17   6.75161882800000E-04
      6.75161852974906E-04   0.00000000000000E+00   0.00000000000000E+00   1.26404782482147E-10  -1.24546030411839E-34
      1.26404782482147E-10   4.28516537717275E-18
      1.58468947549333E-02
      0.00000000000000E+00   3.46685313946407E-11   0.00000000000000E+00   0.00000000000000E+00  -1.47751090290044E-10
     -1.03659755404351E-34  -1.47751090290044E-10   4.61044385365590E-18   0.00000000000000E+00   0.00000000000000E+00
      0.00000000000000E+00   0.00000000000000E+00   0.00000000000000E+00   0.00000000000000E+00   0.00000000000000E+00
      2.15876565178364E-18   0.00000000000000E+00   0.00000000000000E+00   0.00000000000000E+00   0.00000000000000E+00
      1.40986523019566E-19   1.95598466682351E-34   1.40986523019567E-19  -1.10557464238438E-17   7.92344737746667E-04
      7.92344702884870E-04   0.00000000000000E+00   0.00000000000000E+00   1.47751090149058E-10  -9.19387112780005E-35
      1.47751090149058E-10   4.28653691840419E-18
      1.84249175637600E-02
      0.00000000000000E+00   4.01300786926863E-11   0.00000000000000E+00   0.00000000000000E+00  -1.71026615633923E-10
     -1.16330531387482E-34  -1.71026615633923E-10   4.61037421032043E-18   0.00000000000000E+00   0.00000000000000E+00
      0.00000000000000E+00   0.00000000000000E+00   0.00000000000000E+00   0.00000000000000E+00   0.00000000000000E+00
      2.15725610082332E-18   0.00000000000000E+00   0.00000000000000E+00   0.00000000000000E+00   0.00000000000000E+00
      1.09877501907052E-19   2.36784043660741E-34   1.09877501907052E-19  -1.10556759938921E-17   9.21245878188001E-04
      9.21245837834267E-04   0.00000000000000E+00   0.00000000000000E+00   1.71026615524045E-10  -1.20453512273259E-34
      1.71026615524045E-10   4.28804568274834E-18
      2.12607426534693E-02
      0.00000000000000E+00   4.60794884554513E-11   0.00000000000000E+00   0.00000000000000E+00  -1.96381063362094E-10
     -1.14517821135731E-34  -1.96381063362094E-10   4.61029760470096E-18   0.00000000000000E+00   0.00000000000000E+00
      0.00000000000000E+00   0.00000000000000E+00   0.00000000000000E+00   0.00000000000000E+00   0.00000000000000E+00
      2.15559564572670E-18   0.00000000000000E+00   0.00000000000000E+00   0.00000000000000E+00   0.00000000000000E+00
      1.31162373814518E-19   2.08973958620266E-34   1.31162373814518E-19  -1.10555986573268E-17   1.06303713267347E-03
      1.06303708633723E-03   0.00000000000000E+00   0.00000000000000E+00   1.96381063230931E-10  -9.44561374845347E-35
      1.96381063230931E-10   4.28970540689918E-18
      2.43801502521496E-02
      0.00000000000000E+00   5.25533926031219E-11   0.00000000000000E+00   0.00000000000000E+00  -2.23970443686543E-10
     -8.90209485390774E-35  -2.23970443686543E-10   4.61021334099649E-18   0.00000000000000E+00   0.00000000000000E+00
      0.00000000000000E+00   0.00000000000000E+00   0.00000000000000E+00   0.00000000000000E+00   0.00000000000000E+00
      2.15376920664985E-18   0.00000000000000E+00   0.00000000000000E+00   0.00000000000000E+00   0.00000000000000E+00
     -5.43906260216256E-19   1.69456236792845E-34  -5.43906260216255E-19  -1.10555137518525E-17   1.21900751260748E-03
      1.21900745976135E-03   0.00000000000000E+00   0.00000000000000E+00   2.23970444230449E-10  -8.04352882537678E-35
      2.23970444230449E-10   4.29153120420617E-18
      2.78114986106979E-02
      0.00000000000000E+00   5.95896682585715E-11   0.00000000000000E+00   0.00000000000000E+00  -2.53956073093185E-10
     -9.68877199273702E-35  -2.53956073093185E-10   4.61012065391417E-18   0.00000000000000E+00   0.00000000000000E+00
      0.00000000000000E+00   0.00000000000000E+00   0.00000000000000E+00   0.00000000000000E+00   0.00000000000000E+00
      2.15176019794040E-18   0.00000000000000E+00   0.00000000000000E+00   0.00000000000000E+00   0.00000000000000E+00
      6.76021048646797E-19   2.05668853733055E-34   6.76021048646797E-19  -1.10554205548104E-17   1.39057493053490E-03
      1.39057487061339E-03   0.00000000000000E+00   0.00000000000000E+00   2.53956072417164E-10  -1.08781133805685E-34
      2.53956072417164E-10   4.29353970295583E-18
      3.15859818051010E-02
      0.00000000000000E+00   6.72271083426781E-11   0.00000000000000E+00   0.00000000000000E+00  -2.86503197838833E-10
     -7.80016301983354E-35  -2.86503197838833E-10   4.61001870173839E-18   0.00000000000000E+00   0.00000000000000E+00
      0.00000000000000E+00   0.00000000000000E+00   0.00000000000000E+00   0.00000000000000E+00   0.00000000000000E+00
      2.14955037800064E-18   0.00000000000000E+00   0.00000000000000E+00   0.00000000000000E+00   0.00000000000000E+00
      9.67357380857604E-19   1.70654466741854E-34   9.67357380857605E-19  -1.10553182783465E-17   1.57929909025505E-03
      1.57929902265369E-03   0.00000000000000E+00   0.00000000000000E+00   2.86503196871476E-10  -9.26528365435189E-35
      2.86503196871476E-10   4.29574919860748E-18
      3.57379133189445E-02
      0.00000000000000E+00   7.55050330004362E-11   0.00000000000000E+00   0.00000000000000E+00  -3.21779158210804E-10
     -6.36923972275746E-35  -3.21779158210804E-10   4.60990655870989E-18   0.00000000000000E+00   0.00000000000000E+00
      0.00000000000000E+00   0.00000000000000E+00   0.00000000000000E+00   0.00000000000000E+00   0.00000000000000E+00
      2.14711968423030E-18   0.00000000000000E+00   0.00000000000000E+00   0.00000000000000E+00   0.00000000000000E+00
      2.10550032050614E-18   1.70300812337772E-34   2.10550032050614E-18  -1.10552060643462E-17   1.78689566594722E-03
      1.78689559002201E-03   0.00000000000000E+00   0.00000000000000E+00   3.21779156105304E-10  -1.06608415110197E-34
      3.21779156105304E-10   4.29817982140600E-18
      4.03050379841723E-02
      0.00000000000000E+00   8.44626696489807E-11   0.00000000000000E+00   0.00000000000000E+00  -3.59951089816257E-10
     -8.79579051217773E-35  -3.59951089816257E-10   4.60978320664748E-18   0.00000000000000E+00   0.00000000000000E+00
      0.00000000000000E+00   0.00000000000000E+00   0.00000000000000E+00   0.00000000000000E+00   0.00000000000000E+00
      2.14444605155200E-18   0.00000000000000E+00   0.00000000000000E+00   0.00000000000000E+00   0.00000000000000E+00
      3.05568717418208E-18   1.93824396909945E-34   3.05568717418208E-18  -1.10550829791279E-17   2.01525189920861E-03
      2.01525181427607E-03   0.00000000000000E+00   0.00000000000000E+00   3.59951086760570E-10  -1.05866491788168E-34
      3.59951086760570E-10   4.30085372092841E-18
      4.53288751159228E-02
      0.00000000000000E+00   9.41385701167544E-11   0.00000000000000E+00   0.00000000000000E+00  -4.01182986777921E-10
     -5.93528169982967E-35  -4.01182986777921E-10   4.60964752573650E-18   0.00000000000000E+00   0.00000000000000E+00
      0.00000000000000E+00   0.00000000000000E+00   0.00000000000000E+00   0.00000000000000E+00   0.00000000000000E+00
      2.14150521293124E-18   0.00000000000000E+00   0.00000000000000E+00   0.00000000000000E+00   0.00000000000000E+00
      5.23341869976941E-18   1.63052221047667E-34   5.23341869976941E-18  -1.10549480079792E-17   2.26644375579614E-03
      2.26644366113409E-03   0.00000000000000E+00   0.00000000000000E+00   4.01182981544503E-10  -1.03699404049371E-34
      4.01182981544503E-10   4.30379526931151E-18
      5.08550959608485E-02
      0.00000000000000E+00   1.04569665702462E-10   0.00000000000000E+00   0.00000000000000E+00  -4.45632079647744E-10
     -7.29240499089133E-35  -4.45632079647744E-10   4.60949828440282E-18   0.00000000000000E+00   0.00000000000000E+00
      0.00000000000000E+00   0.00000000000000E+00   0.00000000000000E+00   0.00000000000000E+00   0.00000000000000E+00
      2.13827048009228E-18   0.00000000000000E+00   0.00000000000000E+00   0.00000000000000E+00   0.00000000000000E+00
      7.94164470569454E-18   1.67340361253838E-34   7.94164470569454E-18  -1.10548000495525E-17   2.54275479804242E-03
      2.54275469289152E-03   0.00000000000000E+00   0.00000000000000E+00   4.45632071706100E-10  -9.44163113449248E-35
      4.45632071706100E-10   4.30703128505736E-18
      5.69339388902666E-02
      0.00000000000000E+00   1.15790298389717E-10   0.00000000000000E+00   0.00000000000000E+00  -4.93444435638433E-10
     -7.47246170943455E-35  -4.93444435638433E-10   4.60933412818112E-18   0.00000000000000E+00   0.00000000000000E+00
      0.00000000000000E+00   0.00000000000000E+00   0.00000000000000E+00   0.00000000000000E+00   0.00000000000000E+00
      2.13471250248966E-18   0.00000000000000E+00   0.00000000000000E+00   0.00000000000000E+00   0.00000000000000E+00
      1.21290662503993E-17   1.78244705194624E-34   1.21290662503993E-17  -1.10546379102049E-17   2.84669694451333E-03
      2.84669682807971E-03   0.00000000000000E+00   0.00000000000000E+00   4.93444423509367E-10  -1.03520088100278E-34
      4.93444423509367E-10   4.31059127953411E-18
      6.36206661126266E-02
      0.00000000000000E+00   1.27830973878109E-10   0.00000000000000E+00   0.00000000000000E+00  -5.44749742163875E-10
     -9.39427067691685E-35  -5.44749742163875E-10   4.60915356747855E-18   0.00000000000000E+00   0.00000000000000E+00
      0.00000000000000E+00   0.00000000000000E+00   0.00000000000000E+00   0.00000000000000E+00   0.00000000000000E+00
      2.13079900237955E-18   0.00000000000000E+00   0.00000000000000E+00   0.00000000000000E+00   0.00000000000000E+00
      1.79450377604046E-17   1.81869538628809E-34   1.79450377604046E-17  -1.10544602983528E-17   3.18103330563133E-03
      3.18103317709050E-03   0.00000000000000E+00   0.00000000000000E+00   5.44749724218837E-10  -8.79268318596406E-35
      5.44749724218837E-10   4.31450772849475E-18
      7.09760660572226E-02
      0.00000000000000E+00   1.40716911496103E-10   0.00000000000000E+00   0.00000000000000E+00  -5.99655171009625E-10
     -9.66482917276447E-35  -5.99655171009625E-10   4.60895496412484E-18   0.00000000000000E+00   0.00000000000000E+00
      0.00000000000000E+00   0.00000000000000E+00   0.00000000000000E+00   0.00000000000000E+00   0.00000000000000E+00
      2.12649448365064E-18   0.00000000000000E+00   0.00000000000000E+00   0.00000000000000E+00   0.00000000000000E+00
      3.37889667122147E-18   1.72519003701108E-34   3.37889667122147E-18  -1.10542658189686E-17   3.54880330286113E-03
      3.54880316136321E-03   0.00000000000000E+00   0.00000000000000E+00   5.99655167630729E-10  -7.58707119734634E-35
      5.99655167630729E-10   4.31881637119313E-18
      7.90670059962782E-02
      0.00000000000000E+00   1.54466398943875E-10   0.00000000000000E+00   0.00000000000000E+00  -6.58238304172543E-10
     -1.23109420949568E-34  -6.58238304172543E-10   4.60873651658941E-18   0.00000000000000E+00   0.00000000000000E+00
      0.00000000000000E+00   0.00000000000000E+00   0.00000000000000E+00   0.00000000000000E+00   0.00000000000000E+00
      2.12175991184409E-18   0.00000000000000E+00   0.00000000000000E+00   0.00000000000000E+00   0.00000000000000E+00
      7.95837740019673E-17   2.15980116424355E-34   7.95837740019673E-17  -1.10540529683801E-17   3.95335029981391E-03
      3.95335014449067E-03   0.00000000000000E+00   0.00000000000000E+00   6.58238224588769E-10  -9.28706954747871E-35
      6.58238224588769E-10   4.32355653994662E-18
      8.79670399292394E-02
      0.00000000000000E+00   1.69088883865641E-10   0.00000000000000E+00   0.00000000000000E+00  -7.20538930936948E-10
     -9.18757221445143E-35  -7.20538930936948E-10   4.60849624373327E-18   0.00000000000000E+00   0.00000000000000E+00
      0.00000000000000E+00   0.00000000000000E+00   0.00000000000000E+00   0.00000000000000E+00   0.00000000000000E+00
      2.11655236249930E-18   0.00000000000000E+00   0.00000000000000E+00   0.00000000000000E+00   0.00000000000000E+00
      5.81848220933286E-17   1.94249030119827E-34   5.81848220933286E-17  -1.10538201295004E-17   4.39835199646197E-03
      4.39835182643571E-03   0.00000000000000E+00   0.00000000000000E+00   7.20538872752126E-10  -1.02373307975313E-34
      7.20538872752126E-10   4.32877152326783E-18
      9.77570772554967E-02
      0.00000000000000E+00   1.84582932953629E-10   0.00000000000000E+00   0.00000000000000E+00  -7.86550645686405E-10
     -9.95821605541461E-35  -7.86550645686405E-10   4.60823196695091E-18   0.00000000000000E+00   0.00000000000000E+00
      0.00000000000000E+00   0.00000000000000E+00   0.00000000000000E+00   0.00000000000000E+00   0.00000000000000E+00
      2.11082463471615E-18   0.00000000000000E+00   0.00000000000000E+00   0.00000000000000E+00   0.00000000000000E+00
      8.59579586647815E-17   2.02341412022801E-34   8.59579586647815E-17  -1.10535655677192E-17   4.88785386277484E-03
      4.88785367716930E-03   0.00000000000000E+00   0.00000000000000E+00   7.86550559728446E-10  -1.02759251468655E-34
      7.86550559728446E-10   4.33450896605210E-18
      1.07757077255497E-01
      0.00000000000000E+00   1.99789766769041E-10   0.00000000000000E+00   0.00000000000000E+00  -8.51336399984730E-10
     -9.54109064661414E-35  -8.51336399984730E-10   4.60796204742419E-18   0.00000000000000E+00   0.00000000000000E+00
      0.00000000000000E+00   0.00000000000000E+00   0.00000000000000E+00   0.00000000000000E+00   0.00000000000000E+00
      2.10497468593025E-18   0.00000000000000E+00   0.00000000000000E+00   0.00000000000000E+00   0.00000000000000E+00
      1.26526252597838E-16   1.74993323172990E-34   1.26526252597838E-16  -1.10533072254688E-17   5.38785386277483E-03
      5.38785366187894E-03   0.00000000000000E+00   0.00000000000000E+00   8.51336273458476E-10  -7.95824167068484E-35
      8.51336273458476E-10   4.34037049211436E-18
      1.17757077255497E-01
      0.00000000000000E+00   2.14390767087280E-10   0.00000000000000E+00   0.00000000000000E+00  -9.13538940156575E-10
     -8.55005956206143E-35  -9.13538940156575E-10   4.60769215305816E-18   0.00000000000000E+00   0.00000000000000E+00
      0.00000000000000E+00   0.00000000000000E+00   0.00000000000000E+00   0.00000000000000E+00   0.00000000000000E+00
      2.09912535817906E-18   0.00000000000000E+00   0.00000000000000E+00   0.00000000000000E+00   0.00000000000000E+00
      1.05324979299073E-16   1.78381417422101E-34   1.05324979299073E-16  -1.10530505703414E-17   5.88785386277483E-03
      5.88785364719784E-03   0.00000000000000E+00   0.00000000000000E+00   9.13538834831596E-10  -9.28808218014871E-35
      9.13538834831596E-10   4.34623305910423E-18
      1.27757077255497E-01
      0.00000000000000E+00   2.28406147698635E-10   0.00000000000000E+00   0.00000000000000E+00  -9.73244724753968E-10
     -9.10910730370291E-35  -9.73244724753968E-10   4.60742228366032E-18   0.00000000000000E+00   0.00000000000000E+00
      0.00000000000000E+00   0.00000000000000E+00   0.00000000000000E+00   0.00000000000000E+00   0.00000000000000E+00
      2.09327664685136E-18   0.00000000000000E+00   0.00000000000000E+00   0.00000000000000E+00   0.00000000000000E+00
      8.08399964892601E-17   1.80886111310518E-34   8.08399964892601E-17  -1.10527955926443E-17   6.38785386277483E-03
      6.38785363310571E-03   0.00000000000000E+00   0.00000000000000E+00   9.73244643913972E-10  -8.97950382734885E-35
      9.73244643913972E-10   4.35209666213263E-18
      1.37757077255497E-01
      0.00000000000000E+00   2.41855815949895E-10   0.00000000000000E+00   0.00000000000000E+00  -1.03053891538803E-09
     -8.69750767137554E-35  -1.03053891538803E-09   4.60715243903750E-18   0.00000000000000E+00   0.00000000000000E+00
      0.00000000000000E+00   0.00000000000000E+00   0.00000000000000E+00   0.00000000000000E+00   0.00000000000000E+00
      2.08742854737691E-18   0.00000000000000E+00   0.00000000000000E+00   0.00000000000000E+00   0.00000000000000E+00
      9.82123470144806E-17   1.65228914996255E-34   9.82123470144806E-17  -1.10525422827556E-17   6.88785386277483E-03
      6.88785361958246E-03   0.00000000000000E+00   0.00000000000000E+00   1.03053881717568E-09  -7.82538382824995E-35
      1.03053881717568E-09   4.35796129634118E-18
      1.47757077255497E-01
      0.00000000000000E+00   2.54759289730839E-10   0.00000000000000E+00   0.00000000000000E+00  -1.08550492676217E-09
     -9.29679707218847E-35  -1.08550492676217E-09   4.60688261899740E-18   0.00000000000000E+00   0.00000000000000E+00
      0.00000000000000E+00   0.00000000000000E+00   0.00000000000000E+00   0.00000000000000E+00   0.00000000000000E+00
      2.08158105529274E-18   0.00000000000000E+00   0.00000000000000E+00   0.00000000000000E+00   0.00000000000000E+00
      9.70883370064845E-17   2.03539251648966E-34   9.70883370064845E-17  -1.10522906312019E-17   7.38785386277483E-03
      7.38785360660854E-03   0.00000000000000E+00   0.00000000000000E+00   1.08550482967383E-09  -1.10571280927081E-34
      1.08550482967383E-09   4.36382695691176E-18
      1.57757077255497E-01
      0.00000000000000E+00   2.67135866150628E-10   0.00000000000000E+00   0.00000000000000E+00  -1.13822518313121E-09
     -7.98916841168396E-35  -1.13822518313121E-09   4.60661282334389E-18   0.00000000000000E+00   0.00000000000000E+00
      0.00000000000000E+00   0.00000000000000E+00   0.00000000000000E+00   0.00000000000000E+00   0.00000000000000E+00
      2.07573416601405E-18   0.00000000000000E+00   0.00000000000000E+00   0.00000000000000E+00   0.00000000000000E+00
      6.30993487869117E-18   1.73373492041713E-34   6.30993487869117E-18  -1.10520406283837E-17   7.88785386277484E-03
      7.88785359416448E-03   0.00000000000000E+00   0.00000000000000E+00   1.13822517682127E-09  -9.34818079248737E-35
      1.13822517682127E-09   4.36969363902573E-18
      1.67757077255497E-01
      0.00000000000000E+00   2.79004321276164E-10   0.00000000000000E+00   0.00000000000000E+00  -1.18878005347902E-09
     -1.01563289649445E-34  -1.18878005347902E-09   4.60634305188111E-18   0.00000000000000E+00   0.00000000000000E+00
      0.00000000000000E+00   0.00000000000000E+00   0.00000000000000E+00   0.00000000000000E+00   0.00000000000000E+00
      2.06988787503299E-18   0.00000000000000E+00   0.00000000000000E+00   0.00000000000000E+00   0.00000000000000E+00
      9.42092292466741E-17   1.91403677515301E-34   9.42092292466741E-17  -1.10517922648060E-17   8.38785386277484E-03
      8.38785358223140E-03   0.00000000000000E+00   0.00000000000000E+00   1.18877995926979E-09  -8.98403878658566E-35
      1.18877995926979E-09   4.37556133789187E-18
      1.77757077255497E-01
      0.00000000000000E+00   2.90383023171765E-10   0.00000000000000E+00   0.00000000000000E+00  -1.23724786499992E-09
     -6.45129374440045E-35  -1.23724786499992E-09   4.60607330441603E-18   0.00000000000000E+00   0.00000000000000E+00
      0.00000000000000E+00   0.00000000000000E+00   0.00000000000000E+00   0.00000000000000E+00   0.00000000000000E+00
      2.06404217792783E-18   0.00000000000000E+00   0.00000000000000E+00   0.00000000000000E+00   0.00000000000000E+00
      9.37208206886950E-17   1.37716190764238E-34   9.37208206886950E-17  -1.10515455311157E-17   8.88785386277484E-03
      8.88785357079084E-03   0.00000000000000E+00   0.00000000000000E+00   1.23724777127910E-09  -7.32032533202334E-35
      1.23724777127910E-09   4.38143004877184E-18
      1.87757077255497E-01
      0.00000000000000E+00   3.01289844470044E-10   0.00000000000000E+00   0.00000000000000E+00  -1.28370509622545E-09
     -9.12191255957371E-35  -1.28370509622545E-09   4.60580358075205E-18   0.00000000000000E+00   0.00000000000000E+00
      0.00000000000000E+00   0.00000000000000E+00   0.00000000000000E+00   0.00000000000000E+00   0.00000000000000E+00
      2.05819707025762E-18   0.00000000000000E+00   0.00000000000000E+00   0.00000000000000E+00   0.00000000000000E+00
      9.24643516571302E-17   1.80349987830343E-34   9.24643516571302E-17  -1.10513004179353E-17   9.38785386277484E-03
      9.38785355982479E-03   0.00000000000000E+00   0.00000000000000E+00   1.28370500376110E-09  -8.91308622346055E-35
      1.28370500376110E-09   4.38729976692563E-18
      1.97757077255497E-01
      0.00000000000000E+00   3.11742186216210E-10   0.00000000000000E+00   0.00000000000000E+00  -1.32822613828722E-09