DF-ISE text

Info {
  version   = 1.0
  type      = xyplot
  datasets  = [
    "time"
    "source OuterVoltage" "source InnerVoltage" "source QuasiFermiPotential" "source DisplacementCurrent" "source eCurrent"
    "source hCurrent" "source TotalCurrent" "source Charge" "gate OuterVoltage" "gate InnerVoltage"
    "gate QuasiFermiPotential" "gate DisplacementCurrent" "gate eCurrent" "gate hCurrent" "gate TotalCurrent"
    "gate Charge" "substrate OuterVoltage" "substrate InnerVoltage" "substrate QuasiFermiPotential" "substrate DisplacementCurrent"
    "substrate eCurrent" "substrate hCurrent" "substrate TotalCurrent" "substrate Charge" "drain OuterVoltage"
    "drain InnerVoltage" "drain QuasiFermiPotential" "drain DisplacementCurrent" "drain eCurrent" "drain hCurrent"
    "drain TotalCurrent" "drain Charge" ]
  functions = [
    Time
    OuterVoltage InnerVoltage QuasiFermiPotential DisplacementCurrent eCurrent
    hCurrent TotalCurrent Charge OuterVoltage InnerVoltage
    QuasiFermiPotential DisplacementCurrent eCurrent hCurrent TotalCurrent
    Charge OuterVoltage InnerVoltage QuasiFermiPotential DisplacementCurrent
    eCurrent hCurrent TotalCurrent Charge OuterVoltage
    InnerVoltage QuasiFermiPotential DisplacementCurrent eCurrent hCurrent
    TotalCurrent Charge ]
}

Data {
      0.00000000000000E+00
      0.00000000000000E+00   0.00000000000000E+00   0.00000000000000E+00   0.00000000000000E+00  -3.12754580260558E-20
     -1.24020767909910E-34  -3.12754580260560E-20   4.12016315399160E-18   0.00000000000000E+00   0.00000000000000E+00
      0.00000000000000E+00   0.00000000000000E+00   0.00000000000000E+00   0.00000000000000E+00   0.00000000000000E+00
      1.35603443847302E-18   0.00000000000000E+00   0.00000000000000E+00   0.00000000000000E+00   0.00000000000000E+00
      3.59495142585965E-20   2.53945648968581E-34   3.59495142585968E-20  -9.23642520352076E-18   0.00000000000000E+00
      0.00000000000000E+00   0.00000000000000E+00   0.00000000000000E+00  -4.67405623254072E-21  -1.29924881058671E-34
     -4.67405623254085E-21   3.76022761105615E-18
      0.00000000000000E+00
      0.00000000000000E+00   0.00000000000000E+00   0.00000000000000E+00   0.00000000000000E+00  -4.68250246247221E-19
     -1.10489564960488E-34  -4.68250246247221E-19   4.11857743563696E-18   0.00000000000000E+00   0.00000000000000E+00
      0.00000000000000E+00   0.00000000000000E+00   0.00000000000000E+00   0.00000000000000E+00   0.00000000000000E+00
      1.35124716978513E-18   0.00000000000000E+00   0.00000000000000E+00   0.00000000000000E+00   0.00000000000000E+00
      3.37069507666784E-19   2.46212384715403E-34   3.37069507666784E-19  -9.22872757989799E-18   0.00000000000000E+00
      0.00000000000000E+00   0.00000000000000E+00   0.00000000000000E+00   1.31180738580438E-19  -1.35722819754915E-34
      1.31180738580438E-19   3.75890297447588E-18
      1.00000000000000E-03
      0.00000000000000E+00   9.78813730829394E-11   0.00000000000000E+00   0.00000000000000E+00  -3.93535520604598E-10
     -1.11850267957599E-34  -3.93535520604598E-10   4.11819245679966E-18   0.00000000000000E+00   0.00000000000000E+00
      0.00000000000000E+00   0.00000000000000E+00   0.00000000000000E+00   0.00000000000000E+00   0.00000000000000E+00
      1.34092698210245E-18   0.00000000000000E+00   0.00000000000000E+00   0.00000000000000E+00   0.00000000000000E+00
     -2.48028237545622E-18   2.41754682289749E-34  -2.48028237545622E-18  -9.22806311460445E-18   8.60000000000000E-04
      8.59999901651215E-04   0.00000000000000E+00   0.00000000000000E+00   3.93535523084880E-10  -1.29904414332150E-34
      3.93535523084880E-10   3.76894367570231E-18
      2.08666666666667E-03
      0.00000000000000E+00   1.97458147663230E-10   0.00000000000000E+00   0.00000000000000E+00  -7.93858223422851E-10
     -1.16360539345810E-34  -7.93858223422851E-10   4.11777425589623E-18   0.00000000000000E+00   0.00000000000000E+00
      0.00000000000000E+00   0.00000000000000E+00   0.00000000000000E+00   0.00000000000000E+00   0.00000000000000E+00
      1.32971591695401E-18   0.00000000000000E+00   0.00000000000000E+00   0.00000000000000E+00   0.00000000000000E+00
     -2.08921516610853E-20   2.52333880524321E-34  -2.08921516610850E-20  -9.22734941976268E-18   1.79453333333333E-03
      1.79453313493464E-03   0.00000000000000E+00   0.00000000000000E+00   7.93858223443744E-10  -1.35973341178511E-34
      7.93858223443744E-10   3.77985924691242E-18
      3.27475555555556E-03
      0.00000000000000E+00   2.98380894009033E-10   0.00000000000000E+00   0.00000000000000E+00  -1.19955270670166E-09
     -1.22582595051475E-34  -1.19955270670166E-09   4.11731719185413E-18   0.00000000000000E+00   0.00000000000000E+00
      0.00000000000000E+00   0.00000000000000E+00   0.00000000000000E+00   0.00000000000000E+00   0.00000000000000E+00
      1.31746264277265E-18   0.00000000000000E+00   0.00000000000000E+00   0.00000000000000E+00   0.00000000000000E+00
      9.51956956731916E-19   2.53159187632451E-34   9.51956956731916E-19  -9.22657895937274E-18   2.81628977777778E-03
      2.81628947797924E-03   0.00000000000000E+00   0.00000000000000E+00   1.19955270574970E-09  -1.30576592580976E-34
      1.19955270574970E-09   3.79179912474598E-18
      4.57373274074074E-03
      0.00000000000000E+00   3.99677091159243E-10   0.00000000000000E+00   0.00000000000000E+00  -1.60670387293930E-09
     -1.08584639523848E-34  -1.60670387293930E-09   4.11681766798734E-18   0.00000000000000E+00   0.00000000000000E+00
      0.00000000000000E+00   0.00000000000000E+00   0.00000000000000E+00   0.00000000000000E+00   0.00000000000000E+00
      1.30407062109356E-18   0.00000000000000E+00   0.00000000000000E+00   0.00000000000000E+00   0.00000000000000E+00
     -3.74083227012271E-19   2.40488857148541E-34  -3.74083227012271E-19  -9.22574821150600E-18   3.93341015703704E-03
      3.93340975546600E-03   0.00000000000000E+00   0.00000000000000E+00   1.60670387331338E-09  -1.31904217624693E-34
      1.60670387331338E-09   3.80485992242512E-18
      5.99394779654321E-03
      0.00000000000000E+00   5.00310777318975E-10   0.00000000000000E+00   0.00000000000000E+00  -2.01114596083110E-09
     -1.08303334285852E-34  -2.01114596083110E-09   4.11627175665984E-18   0.00000000000000E+00   0.00000000000000E+00
      0.00000000000000E+00   0.00000000000000E+00   0.00000000000000E+00   0.00000000000000E+00   0.00000000000000E+00
      1.28943442454794E-18   0.00000000000000E+00   0.00000000000000E+00   0.00000000000000E+00   0.00000000000000E+00
     -2.67793031285451E-19   2.40474166818547E-34  -2.67793031285450E-19  -9.22485363028249E-18   5.15479510502716E-03
      5.15479460235193E-03   0.00000000000000E+00   0.00000000000000E+00   2.01114596109889E-09  -1.32170832532694E-34
      2.01114596109889E-09   3.81914744907473E-18
      7.54671625755391E-03
      0.00000000000000E+00   5.99185415415366E-10   0.00000000000000E+00   0.00000000000000E+00  -2.40847433275698E-09
     -1.05880968267053E-34  -2.40847433275698E-09   4.11567516904815E-18   0.00000000000000E+00   0.00000000000000E+00
      0.00000000000000E+00   0.00000000000000E+00   0.00000000000000E+00   0.00000000000000E+00   0.00000000000000E+00
      1.27343892440286E-18   0.00000000000000E+00   0.00000000000000E+00   0.00000000000000E+00   0.00000000000000E+00
      2.26830550537921E-19   1.99762188265699E-34   2.26830550537921E-19  -9.22389169070655E-18   6.49017598149636E-03
      6.49017537948708E-03   0.00000000000000E+00   0.00000000000000E+00   2.40847433253015E-09  -9.38812199986463E-35
      2.40847433253015E-09   3.83477759725555E-18
      9.24440977492561E-03
      0.00000000000000E+00   6.95163781156971E-10   0.00000000000000E+00   0.00000000000000E+00  -2.79412635306686E-09
     -1.31627460999578E-34  -2.79412635306686E-09   4.11502322209306E-18   0.00000000000000E+00   0.00000000000000E+00
      0.00000000000000E+00   0.00000000000000E+00   0.00000000000000E+00   0.00000000000000E+00   0.00000000000000E+00
      1.25595840417930E-18   0.00000000000000E+00   0.00000000000000E+00   0.00000000000000E+00   0.00000000000000E+00
     -1.15815736571475E-18   2.33940146247975E-34  -1.15815736571475E-18  -9.22285894400550E-18   7.95019240643603E-03
      7.95019170800532E-03   0.00000000000000E+00   0.00000000000000E+00   2.79412635422502E-09  -1.02312685248397E-34
      2.79412635422502E-09   3.85187731773315E-18
      1.11005546872520E-02
      0.00000000000000E+00   7.87100184922915E-10   0.00000000000000E+00   0.00000000000000E+00  -3.16351167801849E-09
     -1.34281486162202E-34  -3.16351167801849E-09   4.11431080230686E-18   0.00000000000000E+00   0.00000000000000E+00
      0.00000000000000E+00   0.00000000000000E+00   0.00000000000000E+00   0.00000000000000E+00   0.00000000000000E+00
      1.23685559127643E-18   0.00000000000000E+00   0.00000000000000E+00   0.00000000000000E+00   0.00000000000000E+00
      4.96782698513895E-21   2.33695570349063E-34   4.96782698513919E-21  -9.22175208309343E-18   9.54647703103672E-03
      9.54647624024836E-03   0.00000000000000E+00   0.00000000000000E+00   3.16351167801352E-09  -9.94140841868610E-35
      3.16351167801352E-09   3.87058568951014E-18
      1.31299397913955E-02
      0.00000000000000E+00   8.73882976588828E-10   0.00000000000000E+00   0.00000000000000E+00  -3.51218353480241E-09
     -1.10058687775653E-34  -3.51218353480241E-09   4.11353232619114E-18   0.00000000000000E+00   0.00000000000000E+00
      0.00000000000000E+00   0.00000000000000E+00   0.00000000000000E+00   0.00000000000000E+00   0.00000000000000E+00
      1.21598059912167E-18   0.00000000000000E+00   0.00000000000000E+00   0.00000000000000E+00   0.00000000000000E+00
     -3.62675116520480E-19   2.10225600572934E-34  -3.62675116520480E-19  -9.22056802018232E-18   1.12917482206002E-02
      1.12917473426347E-02   0.00000000000000E+00   0.00000000000000E+00   3.51218353516508E-09  -1.00166912797281E-34
      3.51218353516508E-09   3.89105509486951E-18
      1.53487341719258E-02
      0.00000000000000E+00   9.54484375889016E-10   0.00000000000000E+00   0.00000000000000E+00  -3.83603994505458E-09
     -1.30307377199937E-34  -3.83603994505458E-09   4.11268169692005E-18   0.00000000000000E+00   0.00000000000000E+00
      0.00000000000000E+00   0.00000000000000E+00   0.00000000000000E+00   0.00000000000000E+00   0.00000000000000E+00
      1.19316977288277E-18   0.00000000000000E+00   0.00000000000000E+00   0.00000000000000E+00   0.00000000000000E+00
      5.91215257437989E-19   2.07423140469920E-34   5.91215257437990E-19  -9.21930397972231E-18   1.31999113878562E-02
      1.31999104289266E-02   0.00000000000000E+00   0.00000000000000E+00   3.83603994446336E-09  -7.71157632699830E-35
      3.83603994446336E-09   3.91345250991950E-18
      1.77746160279722E-02
      0.00000000000000E+00   1.02801999515375E-09   0.00000000000000E+00   0.00000000000000E+00  -4.13156311328354E-09
     -1.42302033437731E-34  -4.13156311328354E-09   4.11175225679737E-18   0.00000000000000E+00   0.00000000000000E+00
      0.00000000000000E+00   0.00000000000000E+00   0.00000000000000E+00   0.00000000000000E+00   0.00000000000000E+00
      1.16824442560600E-18   0.00000000000000E+00   0.00000000000000E+00   0.00000000000000E+00   0.00000000000000E+00
     -2.53499769862130E-19   2.11345330801355E-34  -2.53499769862130E-19  -9.21795760328696E-18   1.52861697840561E-02
      1.52861687512638E-02   0.00000000000000E+00   0.00000000000000E+00   4.13156311353704E-09  -6.90432973636237E-35
      4.13156311353704E-09   3.93796092088360E-18
      2.04269135239163E-02
      0.00000000000000E+00   1.09381473423442E-09   0.00000000000000E+00   0.00000000000000E+00  -4.39608443838557E-09
     -1.36295171627839E-34  -4.39608443838557E-09   4.11073673500812E-18   0.00000000000000E+00   0.00000000000000E+00
      0.00000000000000E+00   0.00000000000000E+00   0.00000000000000E+00   0.00000000000000E+00   0.00000000000000E+00
      1.14100945361773E-18   0.00000000000000E+00   0.00000000000000E+00   0.00000000000000E+00   0.00000000000000E+00
     -4.10753360607525E-19   2.07620256781140E-34  -4.10753360607525E-19  -9.21652706638255E-18   1.75671456305680E-02
      1.75671445316929E-02   0.00000000000000E+00   0.00000000000000E+00   4.39608443879633E-09  -7.13250851533010E-35
      4.39608443879633E-09   3.96478087775671E-18
      2.33267587861485E-02
      0.00000000000000E+00   1.15146949743910E-09   0.00000000000000E+00   0.00000000000000E+00  -4.62805207280267E-09
     -1.18149908450526E-34  -4.62805207280267E-09   4.10962719035333E-18   0.00000000000000E+00   0.00000000000000E+00
      0.00000000000000E+00   0.00000000000000E+00   0.00000000000000E+00   0.00000000000000E+00   0.00000000000000E+00
      1.11125182280862E-18   0.00000000000000E+00   0.00000000000000E+00   0.00000000000000E+00   0.00000000000000E+00
      7.37262315044528E-19   1.82288385982665E-34   7.37262315044528E-19  -9.21501121338065E-18   2.00610125560877E-02
      2.00610113993110E-02   0.00000000000000E+00   0.00000000000000E+00   4.62805207206541E-09  -6.41384775321388E-35
      4.62805207206541E-09   3.99413220021871E-18
      2.64972562728556E-02
      0.00000000000000E+00   1.20092831642183E-09   0.00000000000000E+00   0.00000000000000E+00  -4.82729998493729E-09
     -9.75637439246460E-35  -4.82729998493729E-09   4.10841494807281E-18   0.00000000000000E+00   0.00000000000000E+00
      0.00000000000000E+00   0.00000000000000E+00   0.00000000000000E+00   0.00000000000000E+00   0.00000000000000E+00
      1.07873890433280E-18   0.00000000000000E+00   0.00000000000000E+00   0.00000000000000E+00   0.00000000000000E+00
     -1.98413516050677E-19   1.53518802287689E-34  -1.98413516050676E-19  -9.21340969994563E-18   2.27876403946559E-02
      2.27876391882158E-02   0.00000000000000E+00   0.00000000000000E+00   4.82729998513570E-09  -5.59550583630434E-35
      4.82729998513570E-09   4.02625584754001E-18
      2.99636668583222E-02
      0.00000000000000E+00   1.24253435894026E-09   0.00000000000000E+00   0.00000000000000E+00  -4.99527107149166E-09
     -1.38772806288967E-34  -4.99527107149166E-09   4.10709053034732E-18   0.00000000000000E+00   0.00000000000000E+00
      0.00000000000000E+00   0.00000000000000E+00   0.00000000000000E+00   0.00000000000000E+00   0.00000000000000E+00
      1.04321664693893E-18   0.00000000000000E+00   0.00000000000000E+00   0.00000000000000E+00   0.00000000000000E+00
      1.68835720668916E-20   1.85082297634877E-34   1.68835720668918E-20  -9.21172314474961E-18   2.57687534981571E-02
      2.57687522499490E-02   0.00000000000000E+00   0.00000000000000E+00   4.99527107147478E-09  -4.63094913459104E-35
      4.99527107147478E-09   4.06141596746335E-18
      3.37536090984323E-02
      0.00000000000000E+00   1.27706304990480E-09   0.00000000000000E+00   0.00000000000000E+00  -5.13514815406721E-09
     -1.06987362082963E-34  -5.13514815406721E-09   4.10564357985799E-18   0.00000000000000E+00   0.00000000000000E+00
      0.00000000000000E+00   0.00000000000000E+00   0.00000000000000E+00   0.00000000000000E+00   0.00000000000000E+00
      1.00440757134437E-18   0.00000000000000E+00   0.00000000000000E+00   0.00000000000000E+00   0.00000000000000E+00
     -6.09141606598116E-19   1.52340143633682E-34  -6.09141606598116E-19  -9.20995329361001E-18   2.90281038246517E-02
      2.90281025417970E-02   0.00000000000000E+00   0.00000000000000E+00   5.13514815467635E-09  -4.53527815507191E-35
      5.13514815467635E-09   4.09990214240761E-18
      3.78972792809526E-02
      0.00000000000000E+00   1.30572741398695E-09   0.00000000000000E+00   0.00000000000000E+00  -5.25186956734597E-09
     -1.16456746644146E-34  -5.25186956734597E-09   4.10406277549889E-18   0.00000000000000E+00   0.00000000000000E+00
      0.00000000000000E+00   0.00000000000000E+00   0.00000000000000E+00   0.00000000000000E+00   0.00000000000000E+00
      9.62008550779680E-19   0.00000000000000E+00   0.00000000000000E+00   0.00000000000000E+00   0.00000000000000E+00
     -3.16060676696408E-19   1.57317207352308E-34  -3.16060676696408E-19  -9.20810317151848E-18   3.25916601816192E-02
      3.25916588700282E-02   0.00000000000000E+00   0.00000000000000E+00   5.25186956766203E-09  -4.08604607081619E-35
      5.25186956766203E-09   4.14203184523990E-18
      4.24276920138415E-02
      0.00000000000000E+00   1.33012581320852E-09   0.00000000000000E+00   0.00000000000000E+00  -5.35191407488994E-09
     -1.44354357648467E-34  -5.35191407488994E-09   4.10233574035849E-18   0.00000000000000E+00   0.00000000000000E+00
      0.00000000000000E+00   0.00000000000000E+00   0.00000000000000E+00   0.00000000000000E+00   0.00000000000000E+00
      9.15688354672465E-19   0.00000000000000E+00   0.00000000000000E+00   0.00000000000000E+00   0.00000000000000E+00
     -8.12224887230247E-18   1.78482375780285E-34  -8.12224887230247E-18  -9.20617721819737E-18   3.64878151319037E-02
      3.64878137958861E-02   0.00000000000000E+00   0.00000000000000E+00   5.35191408301219E-09  -3.41280181318179E-35
      5.35191408301219E-09   4.18815312316640E-18
      4.73809432684667E-02
      0.00000000000000E+00   1.35208699201169E-09   0.00000000000000E+00   0.00000000000000E+00  -5.44267847028962E-09
     -1.03779744844155E-34  -5.44267847028962E-09   4.10044894367957E-18   0.00000000000000E+00   0.00000000000000E+00
      0.00000000000000E+00   0.00000000000000E+00   0.00000000000000E+00   0.00000000000000E+00   0.00000000000000E+00
      8.65084997087372E-19   0.00000000000000E+00   0.00000000000000E+00   0.00000000000000E+00   0.00000000000000E+00
     -1.05273318936008E-17   1.33395856887192E-34  -1.05273318936008E-17  -9.20418147742859E-18   4.07476112108814E-02
      4.07476098529181E-02   0.00000000000000E+00   0.00000000000000E+00   5.44267848081695E-09  -2.96161120430368E-35
      5.44267848081695E-09   4.23864753666166E-18
      5.27964979735236E-02
      0.00000000000000E+00   1.37343076569327E-09   0.00000000000000E+00   0.00000000000000E+00  -5.53150112759867E-09
     -9.68249038131348E-35  -5.53150112759867E-09   4.09838759487201E-18   0.00000000000000E+00   0.00000000000000E+00
      0.00000000000000E+00   0.00000000000000E+00   0.00000000000000E+00   0.00000000000000E+00   0.00000000000000E+00
      8.09802792195571E-19   0.00000000000000E+00   0.00000000000000E+00   0.00000000000000E+00   0.00000000000000E+00
      1.07314585096286E-19   1.28640269721835E-34   1.07314585096286E-19  -9.20212374598760E-18   4.54049882572303E-02
      4.54049868779812E-02   0.00000000000000E+00   0.00000000000000E+00   5.53150112749136E-09  -3.18153659087002E-35
      5.53150112749136E-09   4.29393335892002E-18
      5.86814007530188E-02
      0.00000000000000E+00   1.39559384310845E-09   0.00000000000000E+00   0.00000000000000E+00  -5.62413391422256E-09
     -1.08087537547435E-34  -5.62413391422256E-09   4.09614925529355E-18   0.00000000000000E+00   0.00000000000000E+00
      0.00000000000000E+00   0.00000000000000E+00   0.00000000000000E+00   0.00000000000000E+00   0.00000000000000E+00
      7.49777276640484E-19   0.00000000000000E+00   0.00000000000000E+00   0.00000000000000E+00   0.00000000000000E+00
      7.41850894668791E-19   1.27896727355350E-34   7.41850894668792E-19  -9.20002620279867E-18   5.04660046475962E-02
      5.04660032462823E-02   0.00000000000000E+00   0.00000000000000E+00   5.62413391348071E-09  -1.98091898079148E-35
      5.62413391348071E-09   4.35409967086462E-18
      6.50763284400702E-02
      0.00000000000000E+00   1.41976562095165E-09   0.00000000000000E+00   0.00000000000000E+00  -5.72536403149692E-09
     -9.73267783685963E-35  -5.72536403149692E-09   4.09371869973367E-18   0.00000000000000E+00   0.00000000000000E+00
      0.00000000000000E+00   0.00000000000000E+00   0.00000000000000E+00   0.00000000000000E+00   0.00000000000000E+00
      6.84600919583873E-19   0.00000000000000E+00   0.00000000000000E+00   0.00000000000000E+00   0.00000000000000E+00
      4.77472782755609E-19   1.15834062549236E-34   4.77472782755609E-19  -9.19790026232318E-18   5.59656424584604E-02
      5.59656410331163E-02   0.00000000000000E+00   0.00000000000000E+00   5.72536403101945E-09  -1.85072841806397E-35
      5.72536403101945E-09   4.41958064300564E-18
      7.20254831933328E-02
      0.00000000000000E+00   1.44669764817538E-09   0.00000000000000E+00   0.00000000000000E+00  -5.83824389450782E-09
     -1.32284135266691E-34  -5.83824389450782E-09   4.09107940594561E-18   0.00000000000000E+00   0.00000000000000E+00
      0.00000000000000E+00   0.00000000000000E+00   0.00000000000000E+00   0.00000000000000E+00   0.00000000000000E+00
      6.13831007333352E-19   0.00000000000000E+00   0.00000000000000E+00   0.00000000000000E+00   0.00000000000000E+00
     -3.08263796027056E-19   1.47727581568208E-34  -3.08263796027056E-19  -9.19575950588142E-18   6.19419155462662E-02
      6.19419140941812E-02   0.00000000000000E+00   0.00000000000000E+00   5.83824389481608E-09  -1.54434463015172E-35
      5.83824389481608E-09   4.49084909260243E-18
      7.95768980252114E-02
      0.00000000000000E+00   1.47668806198110E-09   0.00000000000000E+00   0.00000000000000E+00  -5.96399001329186E-09
     -1.35956089056885E-34  -5.96399001329186E-09   4.08821345587051E-18   0.00000000000000E+00   0.00000000000000E+00
      0.00000000000000E+00   0.00000000000000E+00   0.00000000000000E+00   0.00000000000000E+00   0.00000000000000E+00
      5.36986691641224E-19   0.00000000000000E+00   0.00000000000000E+00   0.00000000000000E+00   0.00000000000000E+00
     -4.69150815634529E-19   1.45492730087660E-34  -4.69150815634529E-19  -9.19361999900544E-18   6.84361323016818E-02
      6.84361308198402E-02   0.00000000000000E+00   0.00000000000000E+00   5.96399001376101E-09  -9.53664103077493E-36
      5.96399001376101E-09   4.56841985149369E-18
      8.77827688091861E-02
      0.00000000000000E+00   1.50981421033268E-09   0.00000000000000E+00   0.00000000000000E+00  -6.10296087324629E-09
     -1.25694829971613E-34  -6.10296087324629E-09   4.08510140585699E-18   0.00000000000000E+00   0.00000000000000E+00
      0.00000000000000E+00   0.00000000000000E+00   0.00000000000000E+00   0.00000000000000E+00   0.00000000000000E+00
      4.53545669534315E-19   0.00000000000000E+00   0.00000000000000E+00   0.00000000000000E+00   0.00000000000000E+00
     -4.67170528063474E-19   1.34462426397943E-34  -4.67170528063474E-19  -9.19150046396670E-18   7.54931811759001E-02
      7.54931796611950E-02   0.00000000000000E+00   0.00000000000000E+00   6.10296087371346E-09  -8.76759642633058E-36
      6.10296087371346E-09   4.65285338857539E-18
      9.66998150611054E-02
      0.00000000000000E+00   1.54623182700345E-09   0.00000000000000E+00   0.00000000000000E+00  -6.25590283570432E-09
     -1.08261822912397E-34  -6.25590283570432E-09   4.08172213984979E-18   0.00000000000000E+00   0.00000000000000E+00
      0.00000000000000E+00   0.00000000000000E+00   0.00000000000000E+00   0.00000000000000E+00   0.00000000000000E+00
      3.62940533867151E-19   0.00000000000000E+00   0.00000000000000E+00   0.00000000000000E+00   0.00000000000000E+00
      1.08899467398939E-19   1.15982090343422E-34   1.08899467398939E-19  -9.18942240205199E-18   8.31618409525506E-02
      8.31618394017286E-02   0.00000000000000E+00   0.00000000000000E+00   6.25590283559542E-09  -7.72026743102531E-36
      6.25590283559542E-09   4.74475972833505E-18
      1.06389671988191E-01
      0.00000000000000E+00   1.58627940026168E-09   0.00000000000000E+00   0.00000000000000E+00  -6.42432184907249E-09
     -1.08267336673279E-34  -6.42432184907249E-09   4.07805273624852E-18   0.00000000000000E+00   0.00000000000000E+00
      0.00000000000000E+00   0.00000000000000E+00   0.00000000000000E+00   0.00000000000000E+00   0.00000000000000E+00
      2.64554916148606E-19   0.00000000000000E+00   0.00000000000000E+00   0.00000000000000E+00   0.00000000000000E+00
      9.93462395055545E-19   1.14066137005338E-34   9.93462395055545E-19  -9.18741036457725E-18   9.14951179098442E-02
      9.14951163193432E-02   0.00000000000000E+00   0.00000000000000E+00   6.42432184807903E-09  -5.79880033205859E-36
      6.42432184807903E-09   4.84480271218011E-18
      1.16389671988191E-01
      0.00000000000000E+00   1.62822410463496E-09   0.00000000000000E+00   0.00000000000000E+00  -6.60097002942941E-09
     -1.19861633769673E-34  -6.60097002942941E-09   4.07426867684464E-18   0.00000000000000E+00   0.00000000000000E+00
      0.00000000000000E+00   0.00000000000000E+00   0.00000000000000E+00   0.00000000000000E+00   0.00000000000000E+00
      1.63091416957413E-19   0.00000000000000E+00   0.00000000000000E+00   0.00000000000000E+00   0.00000000000000E+00
     -2.13631237677661E-19   1.23737041955306E-34  -2.13631237677661E-19  -9.18558243976386E-18   1.00095117909844E-01
      1.00095116277828E-01   0.00000000000000E+00   0.00000000000000E+00   6.60097002964304E-09  -3.87540818563326E-36
      6.60097002964304E-09   4.94822234596182E-18
      1.26389671988191E-01
      0.00000000000000E+00   1.67092906208650E-09   0.00000000000000E+00   0.00000000000000E+00  -6.78106230762277E-09
     -1.26350920686233E-34  -6.78106230762277E-09   4.07048728201049E-18   0.00000000000000E+00   0.00000000000000E+00
      0.00000000000000E+00   0.00000000000000E+00   0.00000000000000E+00   0.00000000000000E+00   0.00000000000000E+00
      6.16934682458921E-20   0.00000000000000E+00   0.00000000000000E+00   0.00000000000000E+00   0.00000000000000E+00
      1.14276430391186E-20   1.28856853923541E-34   1.14276430391187E-20  -9.18398786392066E-18   1.08695117909844E-01
      1.08695116235587E-01   0.00000000000000E+00   0.00000000000000E+00   6.78106230761134E-09  -2.50593323730840E-36
      6.78106230761134E-09   5.05180711366431E-18
      1.36389671988191E-01
      0.00000000000000E+00   1.71449920982080E-09   0.00000000000000E+00   0.00000000000000E+00  -6.96503503557321E-09
     -1.43107549296666E-34  -6.96503503557321E-09   4.06670839534368E-18   0.00000000000000E+00   0.00000000000000E+00
      0.00000000000000E+00   0.00000000000000E+00   0.00000000000000E+00   0.00000000000000E+00   0.00000000000000E+00
     -3.96448414715565E-20   0.00000000000000E+00   0.00000000000000E+00   0.00000000000000E+00   0.00000000000000E+00
     -5.72651948810816E-19   1.45339621127927E-34  -5.72651948810816E-19  -9.18260925569264E-18   1.17295117909844E-01
      1.17295116192498E-01   0.00000000000000E+00   0.00000000000000E+00   6.96503503614586E-09  -2.23207183126107E-36
      6.96503503614586E-09   5.15554570182052E-18
      1.46389671988191E-01
      0.00000000000000E+00   1.75899161464687E-09   0.00000000000000E+00   0.00000000000000E+00  -7.15312441198931E-09
     -1.18847083222001E-34  -7.15312441198931E-09   4.06293187412320E-18   0.00000000000000E+00   0.00000000000000E+00
      0.00000000000000E+00   0.00000000000000E+00   0.00000000000000E+00   0.00000000000000E+00   0.00000000000000E+00
     -1.40928616377030E-19   0.00000000000000E+00   0.00000000000000E+00   0.00000000000000E+00   0.00000000000000E+00
     -2.87781745257521E-20   1.20426285660351E-34  -2.87781745257519E-20  -9.18143095854165E-18   1.25895117909844E-01
      1.25895116148488E-01   0.00000000000000E+00   0.00000000000000E+00   7.15312441201809E-09  -1.57920243835009E-36
      7.15312441201809E-09   5.25942770079546E-18
      1.56389671988191E-01
      0.00000000000000E+00   1.80442296291658E-09   0.00000000000000E+00   0.00000000000000E+00  -7.34540005993867E-09
     -1.20684502348514E-34  -7.34540005993867E-09   4.05915759173169E-18   0.00000000000000E+00   0.00000000000000E+00
      0.00000000000000E+00   0.00000000000000E+00   0.00000000000000E+00   0.00000000000000E+00   0.00000000000000E+00
     -2.42162291155155E-19   0.00000000000000E+00   0.00000000000000E+00   0.00000000000000E+00   0.00000000000000E+00
      5.63812199962425E-19   1.21825598425462E-34   5.63812199962425E-19  -9.18043881367091E-18   1.34495117909844E-01
      1.34495116103535E-01   0.00000000000000E+00   0.00000000000000E+00   7.34540005937486E-09  -1.14109607694752E-36
      7.34540005937486E-09   5.36344351309440E-18
      1.66389671988191E-01
      0.00000000000000E+00   1.85078712950439E-09   0.00000000000000E+00   0.00000000000000E+00  -7.54183927062571E-09
     -1.04967493476472E-34  -7.54183927062571E-09   4.05538544313194E-18   0.00000000000000E+00   0.00000000000000E+00
      0.00000000000000E+00   0.00000000000000E+00   0.00000000000000E+00   0.00000000000000E+00   0.00000000000000E+00
     -3.43349628961486E-19   0.00000000000000E+00   0.00000000000000E+00   0.00000000000000E+00   0.00000000000000E+00
     -2.10744410588708E-19   1.05908978937444E-34  -2.10744410588708E-19  -9.17962013215375E-18   1.43095117909844E-01
      1.43095116057658E-01   0.00000000000000E+00   0.00000000000000E+00   7.54183927083646E-09  -9.41485460971973E-37
      7.54183927083646E-09   5.46758431798331E-18
      1.76389671988191E-01
      0.00000000000000E+00   1.89807229123728E-09   0.00000000000000E+00   0.00000000000000E+00  -7.74240019881460E-09
     -1.21182982592509E-34  -7.74240019881460E-09   4.05161533825798E-18   0.00000000000000E+00   0.00000000000000E+00
      0.00000000000000E+00   0.00000000000000E+00   0.00000000000000E+00   0.00000000000000E+00   0.00000000000000E+00
     -4.44493937895945E-19   0.00000000000000E+00   0.00000000000000E+00   0.00000000000000E+00   0.00000000000000E+00
     -6.71862547620960E-20   1.21800529454523E-34  -6.71862547620959E-20  -9.17896337904166E-18   1.51695117909844E-01
      1.51695116010888E-01   0.00000000000000E+00   0.00000000000000E+00   7.74240019888179E-09  -6.17546862013872E-37
      7.74240019888179E-09   5.57184197867962E-18
      1.86389671988191E-01
      0.00000000000000E+00   1.94627453828480E-09   0.00000000000000E+00   0.00000000000000E+00  -7.94707427530152E-09