DF-ISE text

Info {
  version   = 1.0
  type      = xyplot
  datasets  = [
    "time"
    "source OuterVoltage" "source InnerVoltage" "source QuasiFermiPotential" "source DisplacementCurrent" "source eCurrent"
    "source hCurrent" "source TotalCurrent" "source Charge" "gate OuterVoltage" "gate InnerVoltage"
    "gate QuasiFermiPotential" "gate DisplacementCurrent" "gate eCurrent" "gate hCurrent" "gate TotalCurrent"
    "gate Charge" "substrate OuterVoltage" "substrate InnerVoltage" "substrate QuasiFermiPotential" "substrate DisplacementCurrent"
    "substrate eCurrent" "substrate hCurrent" "substrate TotalCurrent" "substrate Charge" "drain OuterVoltage"
    "drain InnerVoltage" "drain QuasiFermiPotential" "drain DisplacementCurrent" "drain eCurrent" "drain hCurrent"
    "drain TotalCurrent" "drain Charge" ]
  functions = [
    Time
    OuterVoltage InnerVoltage QuasiFermiPotential DisplacementCurrent eCurrent
    hCurrent TotalCurrent Charge OuterVoltage InnerVoltage
    QuasiFermiPotential DisplacementCurrent eCurrent hCurrent TotalCurrent
    Charge OuterVoltage InnerVoltage QuasiFermiPotential DisplacementCurrent
    eCurrent hCurrent TotalCurrent Charge OuterVoltage
    InnerVoltage QuasiFermiPotential DisplacementCurrent eCurrent hCurrent
    TotalCurrent Charge ]
}

Data {
      0.00000000000000E+00
      0.00000000000000E+00   0.00000000000000E+00   0.00000000000000E+00   0.00000000000000E+00   2.67157558902004E-22
      5.80533190873502E-34   2.67157558902584E-22   4.62897670212630E-18   0.00000000000000E+00   0.00000000000000E+00
      0.00000000000000E+00   0.00000000000000E+00   0.00000000000000E+00   0.00000000000000E+00   0.00000000000000E+00
      3.30797120396154E-18   0.00000000000000E+00   0.00000000000000E+00   0.00000000000000E+00   0.00000000000000E+00
     -1.11119918702472E-21  -1.15070969327733E-33  -1.11119918702587E-21  -1.17678737153649E-17   0.00000000000000E+00
      0.00000000000000E+00   0.00000000000000E+00   0.00000000000000E+00   8.44041628122718E-22   5.70176502403828E-34
      8.44041628123288E-22   3.83092580927708E-18
      0.00000000000000E+00
      0.00000000000000E+00   0.00000000000000E+00   0.00000000000000E+00   0.00000000000000E+00   6.90414068290260E-21
      6.08964655777591E-34   6.90414068290321E-21   4.62732204664266E-18   0.00000000000000E+00   0.00000000000000E+00
      0.00000000000000E+00   0.00000000000000E+00   0.00000000000000E+00   0.00000000000000E+00   0.00000000000000E+00
      3.30230923151352E-18   0.00000000000000E+00   0.00000000000000E+00   0.00000000000000E+00   0.00000000000000E+00
      8.00507751536450E-22  -1.18347897761352E-33   8.00507751535267E-22  -1.17593903719357E-17   0.00000000000000E+00
      0.00000000000000E+00   0.00000000000000E+00   0.00000000000000E+00  -7.70464843443905E-21   5.74514321835930E-34
     -7.70464843443848E-21   3.82975909377953E-18
      1.00000000000000E-03
      0.00000000000000E+00   2.72696419489856E-11   0.00000000000000E+00   0.00000000000000E+00  -1.26998440249313E-10
      6.13911227304246E-34  -1.26998440249313E-10   4.62704382785960E-18   0.00000000000000E+00   0.00000000000000E+00
      0.00000000000000E+00   0.00000000000000E+00   0.00000000000000E+00   0.00000000000000E+00   0.00000000000000E+00
      3.29268917663156E-18   0.00000000000000E+00   0.00000000000000E+00   0.00000000000000E+00   0.00000000000000E+00
     -1.20456581059408E-18  -1.18545187939295E-33  -1.20456581059408E-18  -1.17590590502486E-17   8.60000000000000E-04
      8.59999972545876E-04   0.00000000000000E+00   0.00000000000000E+00   1.26998441453879E-10   5.71540652088705E-34
      1.26998441453879E-10   3.83932604575747E-18
      2.08666666666667E-03
      0.00000000000000E+00   5.51506229402419E-11   0.00000000000000E+00   0.00000000000000E+00  -2.56834753927907E-10
      5.66469717398701E-34  -2.56834753927907E-10   4.62674156238246E-18   0.00000000000000E+00   0.00000000000000E+00
      0.00000000000000E+00   0.00000000000000E+00   0.00000000000000E+00   0.00000000000000E+00   0.00000000000000E+00
      3.28223787928928E-18   0.00000000000000E+00   0.00000000000000E+00   0.00000000000000E+00   0.00000000000000E+00
      5.60122273018026E-16  -1.09338122172309E-33   5.60122273018026E-16  -1.17587049911362E-17   1.79453333333333E-03
      1.79453327780935E-03   0.00000000000000E+00   0.00000000000000E+00   2.56834193805634E-10   5.26911504324391E-34
      2.56834193805634E-10   3.84972554946445E-18
      3.28200000000000E-03
      0.00000000000000E+00   8.37460635889540E-11   0.00000000000000E+00   0.00000000000000E+00  -3.89984500943347E-10
      6.18049786469086E-34  -3.89984500943347E-10   4.62640914840586E-18   0.00000000000000E+00   0.00000000000000E+00
      0.00000000000000E+00   0.00000000000000E+00   0.00000000000000E+00   0.00000000000000E+00   0.00000000000000E+00
      3.27074440827697E-18   0.00000000000000E+00   0.00000000000000E+00   0.00000000000000E+00   0.00000000000000E+00
      7.66435995532311E-16  -1.15693308298975E-33   7.66435995532311E-16  -1.17583226249367E-17   2.82252000000000E-03
      2.82251991568698E-03   0.00000000000000E+00   0.00000000000000E+00   3.89983734507352E-10   5.38883296520666E-34
      3.89983734507352E-10   3.86116906825384E-18
      4.59686666666667E-03
      0.00000000000000E+00   1.12800415872910E-10   0.00000000000000E+00   0.00000000000000E+00  -5.25254670595701E-10
      5.90913286574422E-34  -5.25254670595701E-10   4.62604358596280E-18   0.00000000000000E+00   0.00000000000000E+00
      0.00000000000000E+00   0.00000000000000E+00   0.00000000000000E+00   0.00000000000000E+00   0.00000000000000E+00
      3.25810510701846E-18   0.00000000000000E+00   0.00000000000000E+00   0.00000000000000E+00   0.00000000000000E+00
      6.71472157876357E-21  -1.08461005988382E-33   6.71472157876249E-21  -1.17579104924804E-17   3.95330533333333E-03
      3.95330521976947E-03   0.00000000000000E+00   0.00000000000000E+00   5.25254670588987E-10   4.93696773309399E-34
      5.25254670588987E-10   3.87376179949916E-18
      6.03445422222222E-03
      0.00000000000000E+00   1.41857121263295E-10   0.00000000000000E+00   0.00000000000000E+00  -6.60519398130227E-10
      5.91531484466554E-34  -6.60519398130227E-10   4.62564401362817E-18   0.00000000000000E+00   0.00000000000000E+00
      0.00000000000000E+00   0.00000000000000E+00   0.00000000000000E+00   0.00000000000000E+00   0.00000000000000E+00
      3.24429027653967E-18   0.00000000000000E+00   0.00000000000000E+00   0.00000000000000E+00   0.00000000000000E+00
      7.29006239127370E-21  -1.07974316010529E-33   7.29006239127262E-21  -1.17574698949354E-17   5.18963063111111E-03
      5.18963048829351E-03   0.00000000000000E+00   0.00000000000000E+00   6.60519398122937E-10   4.88211675638739E-34
      6.60519398122937E-10   3.88753560476755E-18
      7.60621661629630E-03
      0.00000000000000E+00   1.70616607125010E-10   0.00000000000000E+00   0.00000000000000E+00  -7.94382263083759E-10
      6.05708982883351E-34  -7.94382263083759E-10   4.62520727558002E-18   0.00000000000000E+00   0.00000000000000E+00
      0.00000000000000E+00   0.00000000000000E+00   0.00000000000000E+00   0.00000000000000E+00   0.00000000000000E+00
      3.22919091028963E-18   0.00000000000000E+00   0.00000000000000E+00   0.00000000000000E+00   0.00000000000000E+00
      1.47775798330270E-20  -1.07115028954662E-33   1.47775798330259E-20  -1.17569999312907E-17   6.54134629001482E-03
      6.54134611824243E-03   0.00000000000000E+00   0.00000000000000E+00   7.94382263068982E-10   4.65441306663268E-34
      7.94382263068982E-10   3.90260174542098E-18
      9.32467683381729E-03
      0.00000000000000E+00   1.98760087567865E-10   0.00000000000000E+00   0.00000000000000E+00  -9.25359226482941E-10
      5.84801492315873E-34  -9.25359226482941E-10   4.62472992410491E-18   0.00000000000000E+00   0.00000000000000E+00
      0.00000000000000E+00   0.00000000000000E+00   0.00000000000000E+00   0.00000000000000E+00   0.00000000000000E+00
      3.21268793862638E-18   0.00000000000000E+00   0.00000000000000E+00   0.00000000000000E+00   0.00000000000000E+00
      4.51184830530716E-20  -1.01081213671959E-33   4.51184830530706E-20  -1.17564999033148E-17   8.01922207708287E-03
      8.01922187697555E-03   0.00000000000000E+00   0.00000000000000E+00   9.25359226437822E-10   4.26010644403715E-34
      9.25359226437822E-10   3.91908204058351E-18
      1.12035266716402E-02
      0.00000000000000E+00   2.25957052112361E-10   0.00000000000000E+00   0.00000000000000E+00  -1.05191295950821E-09
      6.02073360348930E-34  -1.05191295950821E-09   4.62420819261668E-18   0.00000000000000E+00   0.00000000000000E+00
      0.00000000000000E+00   0.00000000000000E+00   0.00000000000000E+00   0.00000000000000E+00   0.00000000000000E+00
      3.19465130328485E-18   0.00000000000000E+00   0.00000000000000E+00   0.00000000000000E+00   0.00000000000000E+00
      5.77335993503405E-22  -1.01302557039147E-33   5.77335993502392E-22  -1.17559693745019E-17   9.63503293761060E-03
      9.63503271012090E-03   0.00000000000000E+00   0.00000000000000E+00   1.05191295950763E-09   4.10952210042534E-34
      1.05191295950763E-09   3.93710987860039E-18
      1.32577358276600E-02
      0.00000000000000E+00   2.51875404020792E-10   0.00000000000000E+00   0.00000000000000E+00  -1.17250057905317E-09
      5.93256596215796E-34  -1.17250057905317E-09   4.62363796615083E-18   0.00000000000000E+00   0.00000000000000E+00
      0.00000000000000E+00   0.00000000000000E+00   0.00000000000000E+00   0.00000000000000E+00   0.00000000000000E+00
      3.17493894695936E-18   0.00000000000000E+00   0.00000000000000E+00   0.00000000000000E+00   0.00000000000000E+00
      9.93879196558299E-21  -9.67986135577315E-34   9.93879196558202E-21  -1.17554082391859E-17   1.14016528117876E-02
      1.14016525582024E-02   0.00000000000000E+00   0.00000000000000E+00   1.17250057904323E-09   3.74729539361521E-34
      1.17250057904323E-09   3.95683132607570E-18
      1.55036711715749E-02
      0.00000000000000E+00   2.76194788296499E-10   0.00000000000000E+00   0.00000000000000E+00  -1.28563553534297E-09
      5.91450982814804E-34  -1.28563553534297E-09   4.62301474908531E-18   0.00000000000000E+00   0.00000000000000E+00
      0.00000000000000E+00   0.00000000000000E+00   0.00000000000000E+00   0.00000000000000E+00   0.00000000000000E+00
      3.15339570902165E-18   0.00000000000000E+00   0.00000000000000E+00   0.00000000000000E+00   0.00000000000000E+00
     -2.43890143245273E-20  -9.50044518483511E-34  -2.43890143245282E-20  -1.17548168018431E-17   1.33331572075544E-02
      1.33331569294831E-02   0.00000000000000E+00   0.00000000000000E+00   1.28563553536735E-09   3.58593535668706E-34
      1.28563553536735E-09   3.97840634373611E-18
      1.79592271475886E-02
      0.00000000000000E+00   2.98622592586271E-10   0.00000000000000E+00   0.00000000000000E+00  -1.38996273029851E-09
      5.90538229306382E-34  -1.38996273029851E-09   4.62233362979013E-18   0.00000000000000E+00   0.00000000000000E+00
      0.00000000000000E+00   0.00000000000000E+00   0.00000000000000E+00   0.00000000000000E+00   0.00000000000000E+00
      3.12985211779590E-18   0.00000000000000E+00   0.00000000000000E+00   0.00000000000000E+00   0.00000000000000E+00
     -1.05922897573452E-20  -9.41140600911943E-34  -1.05922897573461E-20  -1.17541958663263E-17   1.54449353469262E-02
      1.54449350462727E-02   0.00000000000000E+00   0.00000000000000E+00   1.38996273030910E-09   3.50602371605561E-34
      1.38996273030910E-09   4.00201011874030E-18
      2.06439683480302E-02
      0.00000000000000E+00   3.18912307275289E-10   0.00000000000000E+00   0.00000000000000E+00  -1.48434387559920E-09
      5.80304908161745E-34  -1.48434387559920E-09   4.62158924190081E-18   0.00000000000000E+00   0.00000000000000E+00
      0.00000000000000E+00   0.00000000000000E+00   0.00000000000000E+00   0.00000000000000E+00   0.00000000000000E+00
      3.10412306940562E-18   0.00000000000000E+00   0.00000000000000E+00   0.00000000000000E+00   0.00000000000000E+00
     -1.53788450499774E-20  -8.90534968814928E-34  -1.53788450499782E-20  -1.17535468354336E-17   1.77538127793060E-02
      1.77538124582227E-02   0.00000000000000E+00   0.00000000000000E+00   1.48434387561458E-09   3.10230060653184E-34
      1.48434387561458E-09   4.02783452412715E-18
      2.35792853938464E-02
      0.00000000000000E+00   3.36883353991289E-10   0.00000000000000E+00   0.00000000000000E+00  -1.56794967929878E-09
      5.96030516536333E-34  -1.56794967929878E-09   4.62077572190226E-18   0.00000000000000E+00   0.00000000000000E+00
      0.00000000000000E+00   0.00000000000000E+00   0.00000000000000E+00   0.00000000000000E+00   0.00000000000000E+00
      3.07600638278724E-18   0.00000000000000E+00   0.00000000000000E+00   0.00000000000000E+00   0.00000000000000E+00
     -1.60678104935693E-20  -8.83471338927241E-34  -1.60678104935702E-20  -1.17528718224174E-17   2.02781854387079E-02
      2.02781850995292E-02   0.00000000000000E+00   0.00000000000000E+00   1.56794967931485E-09   2.87440822390908E-34
      1.56794967931485E-09   4.05608971772783E-18
      2.67885653639387E-02
      0.00000000000000E+00   3.52441588558945E-10   0.00000000000000E+00   0.00000000000000E+00  -1.64035549232612E-09
      6.08366151701866E-34  -1.64035549232612E-09   4.61988666260448E-18   0.00000000000000E+00   0.00000000000000E+00
      0.00000000000000E+00   0.00000000000000E+00   0.00000000000000E+00   0.00000000000000E+00   0.00000000000000E+00
      3.04528121616854E-18   0.00000000000000E+00   0.00000000000000E+00   0.00000000000000E+00   0.00000000000000E+00
     -1.05949515614162E-20  -8.82229270246894E-34  -1.05949515614171E-20  -1.17521737709356E-17   2.30381662129873E-02
      2.30381658581426E-02   0.00000000000000E+00   0.00000000000000E+00   1.64035549233671E-09   2.73863118545029E-34
      1.64035549233671E-09   4.08700589216259E-18
      3.02973781312396E-02
      0.00000000000000E+00   3.65598500976194E-10   0.00000000000000E+00   0.00000000000000E+00  -1.70163004648943E-09
      5.77925652475153E-34  -1.70163004648943E-09   4.61891506211663E-18   0.00000000000000E+00   0.00000000000000E+00
      0.00000000000000E+00   0.00000000000000E+00   0.00000000000000E+00   0.00000000000000E+00   0.00000000000000E+00
      3.01170633164100E-18   0.00000000000000E+00   0.00000000000000E+00   0.00000000000000E+00   0.00000000000000E+00
     -2.19459796057429E-21  -8.17431996203163E-34  -2.19459796057511E-21  -1.17514565831407E-17   2.60557451928661E-02
      2.60557448247740E-02   0.00000000000000E+00   0.00000000000000E+00   1.70163004649162E-09   2.39506343728009E-34
      1.70163004649162E-09   4.12083518938304E-18
      3.41336800901553E-02
      0.00000000000000E+00   3.76486235348460E-10   0.00000000000000E+00   0.00000000000000E+00  -1.75240484547558E-09
      5.86068676412057E-34  -1.75240484547558E-09   4.61785326793052E-18   0.00000000000000E+00   0.00000000000000E+00
      0.00000000000000E+00   0.00000000000000E+00   0.00000000000000E+00   0.00000000000000E+00   0.00000000000000E+00
      2.97501819251296E-18   0.00000000000000E+00   0.00000000000000E+00   0.00000000000000E+00   0.00000000000000E+00
      6.84330069081498E-21  -8.06486407419677E-34   6.84330069081417E-21  -1.17507252549654E-17   2.93549648775336E-02
      2.93549644984804E-02   0.00000000000000E+00   0.00000000000000E+00   1.75240484546873E-09   2.20417731007620E-34
      1.75240484546873E-09   4.15785379452186E-18
      3.83280368985698E-02
      0.00000000000000E+00   3.85364653080915E-10   0.00000000000000E+00   0.00000000000000E+00  -1.79390567570084E-09
      5.92596984543122E-34  -1.79390567570084E-09   4.61669291560990E-18   0.00000000000000E+00   0.00000000000000E+00
      0.00000000000000E+00   0.00000000000000E+00   0.00000000000000E+00   0.00000000000000E+00   0.00000000000000E+00
      2.93492887261222E-18   0.00000000000000E+00   0.00000000000000E+00   0.00000000000000E+00   0.00000000000000E+00
     -1.04641139455583E-20  -7.84398419700416E-34  -1.04641139455591E-20  -1.17499860111252E-17   3.29621117327701E-02
      3.29621113447812E-02   0.00000000000000E+00   0.00000000000000E+00   1.79390567571130E-09   1.91801435157294E-34
      1.79390567571130E-09   4.19836422290310E-18
      4.29138670091030E-02
      0.00000000000000E+00   3.92613353451972E-10   0.00000000000000E+00   0.00000000000000E+00  -1.82791372737127E-09
      5.88674067959543E-34  -1.82791372737127E-09   4.61542486184601E-18   0.00000000000000E+00   0.00000000000000E+00
      0.00000000000000E+00   0.00000000000000E+00   0.00000000000000E+00   0.00000000000000E+00   0.00000000000000E+00
      2.89112376339028E-18   0.00000000000000E+00   0.00000000000000E+00   0.00000000000000E+00   0.00000000000000E+00
     -1.62955690771962E-19  -7.54004572841529E-34  -1.62955690771963E-19  -1.17492464430937E-17   3.69059256278286E-02
      3.69059252325488E-02   0.00000000000000E+00   0.00000000000000E+00   1.82791372753422E-09   1.65330504881986E-34
      1.82791372753422E-09   4.24269781785741E-18
      4.79277079299527E-02
      0.00000000000000E+00   3.98703925990297E-10   0.00000000000000E+00   0.00000000000000E+00  -1.85663397385939E-09
      5.96702449910184E-34  -1.85663397385939E-09   4.61403911136501E-18   0.00000000000000E+00   0.00000000000000E+00
      0.00000000000000E+00   0.00000000000000E+00   0.00000000000000E+00   0.00000000000000E+00   0.00000000000000E+00
      2.84325905499752E-18   0.00000000000000E+00   0.00000000000000E+00   0.00000000000000E+00   0.00000000000000E+00
     -3.58049151084479E-19  -7.39775136008758E-34  -3.58049151084480E-19  -1.17485156403510E-17   4.12178288197593E-02
      4.12178284183603E-02   0.00000000000000E+00   0.00000000000000E+00   1.85663397421744E-09   1.43072686098573E-34
      1.85663397421744E-09   4.29121747398854E-18
      5.34095073367482E-02
      0.00000000000000E+00   4.04153951753357E-10   0.00000000000000E+00   0.00000000000000E+00  -1.88248050716142E-09
      5.89904246459656E-34  -1.88248050716142E-09   4.61252473746413E-18   0.00000000000000E+00   0.00000000000000E+00
      0.00000000000000E+00   0.00000000000000E+00   0.00000000000000E+00   0.00000000000000E+00   0.00000000000000E+00
      2.79095897925910E-18   0.00000000000000E+00   0.00000000000000E+00   0.00000000000000E+00   0.00000000000000E+00
     -4.44226919785422E-19  -7.15536371234136E-34  -4.44226919785423E-19  -1.17478043231632E-17   4.59321763096035E-02
      4.59321759027380E-02   0.00000000000000E+00   0.00000000000000E+00   1.88248050760565E-09   1.25632124774480E-34
      1.88248050760565E-09   4.34432060643995E-18
      5.94029413548448E-02
      0.00000000000000E+00   4.09468102633505E-10   0.00000000000000E+00   0.00000000000000E+00  -1.90780490252502E-09
      5.71359105394117E-34  -1.90780490252502E-09   4.61086979621870E-18   0.00000000000000E+00   0.00000000000000E+00
      0.00000000000000E+00   0.00000000000000E+00   0.00000000000000E+00   0.00000000000000E+00   0.00000000000000E+00
      2.73381279727428E-18   0.00000000000000E+00   0.00000000000000E+00   0.00000000000000E+00   0.00000000000000E+00
     -1.58072215940358E-20  -6.73812619789271E-34  -1.58072215940365E-20  -1.17471249774096E-17   5.10865295651665E-02
      5.10865291529809E-02   0.00000000000000E+00   0.00000000000000E+00   1.90780490254082E-09   1.02453514395153E-34
      1.90780490254082E-09   4.40244238391661E-18
      6.59158063211763E-02
      0.00000000000000E+00   4.15026338095442E-10   0.00000000000000E+00   0.00000000000000E+00  -1.93437119227331E-09
      5.86146027940714E-34  -1.93437119227331E-09   4.60907226002906E-18   0.00000000000000E+00   0.00000000000000E+00
      0.00000000000000E+00   0.00000000000000E+00   0.00000000000000E+00   0.00000000000000E+00   0.00000000000000E+00
      2.67175216116454E-18   0.00000000000000E+00   0.00000000000000E+00   0.00000000000000E+00   0.00000000000000E+00
      1.54777843273904E-20  -6.71519898258565E-34   1.54777843273897E-20  -1.17464955488338E-17   5.66875934362116E-02
      5.66875930184701E-02   0.00000000000000E+00   0.00000000000000E+00   1.93437119225783E-09   8.53738703178520E-35
      1.93437119225783E-09   4.46567112764014E-18
      7.29931195845899E-02
      0.00000000000000E+00   4.21079078347980E-10   0.00000000000000E+00   0.00000000000000E+00  -1.96333416349523E-09
      5.99151594623532E-34  -1.96333416349523E-09   4.60711983473139E-18   0.00000000000000E+00   0.00000000000000E+00
      0.00000000000000E+00   0.00000000000000E+00   0.00000000000000E+00   0.00000000000000E+00   0.00000000000000E+00
      2.60435407716298E-18   0.00000000000000E+00   0.00000000000000E+00   0.00000000000000E+00   0.00000000000000E+00
     -5.19586409487168E-21  -6.66602118557941E-34  -5.19586409487235E-21  -1.17459310220493E-17   6.27740828427473E-02
      6.27740824189627E-02   0.00000000000000E+00   0.00000000000000E+00   1.96333416350043E-09   6.74505239344091E-35
      1.96333416350043E-09   4.53445711015491E-18
      8.06837999974994E-02
      0.00000000000000E+00   4.27744739474738E-10   0.00000000000000E+00   0.00000000000000E+00  -1.99524076680127E-09
      5.55664320377275E-34  -1.99524076680127E-09   4.60499916643062E-18   0.00000000000000E+00   0.00000000000000E+00
      0.00000000000000E+00   0.00000000000000E+00   0.00000000000000E+00   0.00000000000000E+00   0.00000000000000E+00
      2.53115892157370E-18   0.00000000000000E+00   0.00000000000000E+00   0.00000000000000E+00   0.00000000000000E+00
      1.44662833761781E-21  -6.11270629602653E-34   1.44662833761720E-21  -1.17454481274979E-17   6.93880679978495E-02
      6.93880675674169E-02   0.00000000000000E+00   0.00000000000000E+00   1.99524076679982E-09   5.56063092253779E-35
      1.99524076679982E-09   4.60929003949355E-18
      8.90410060461943E-02
      0.00000000000000E+00   4.35095243097611E-10   0.00000000000000E+00   0.00000000000000E+00  -2.03043650939352E-09
      5.95943855509074E-34  -2.03043650939352E-09   4.60269574858006E-18   0.00000000000000E+00   0.00000000000000E+00
      0.00000000000000E+00   0.00000000000000E+00   0.00000000000000E+00   0.00000000000000E+00   0.00000000000000E+00
      2.45166725179648E-18   0.00000000000000E+00   0.00000000000000E+00   0.00000000000000E+00   0.00000000000000E+00
     -5.74229878230303E-21  -6.38215895335772E-34  -5.74229878230367E-21  -1.17450654078616E-17   7.65752651997271E-02
      7.65752647619703E-02   0.00000000000000E+00   0.00000000000000E+00   2.03043650939926E-09   4.22720398266976E-35
      2.03043650939926E-09   4.69070240748505E-18
      9.81225032857761E-02
      0.00000000000000E+00   4.43176326235882E-10   0.00000000000000E+00   0.00000000000000E+00  -2.06914591007482E-09
      6.04518319539136E-34  -2.06914591007482E-09   4.60019382783142E-18   0.00000000000000E+00   0.00000000000000E+00
      0.00000000000000E+00   0.00000000000000E+00   0.00000000000000E+00   0.00000000000000E+00   0.00000000000000E+00
      2.36533643337877E-18   0.00000000000000E+00   0.00000000000000E+00   0.00000000000000E+00   0.00000000000000E+00
     -1.32008068460728E-20  -6.37784991997976E-34  -1.32008068460735E-20  -1.17448033703488E-17   8.43853528257675E-02
      8.43853523799595E-02   0.00000000000000E+00   0.00000000000000E+00   2.06914591008802E-09   3.32666724588399E-35
      2.06914591008802E-09   4.77927310913860E-18
      1.07991063619455E-01
      0.00000000000000E+00   4.52019669791073E-10   0.00000000000000E+00   0.00000000000000E+00  -2.11153135198722E-09
      5.49727628643863E-34  -2.11153135198722E-09   4.59747629583514E-18   0.00000000000000E+00   0.00000000000000E+00
      0.00000000000000E+00   0.00000000000000E+00   0.00000000000000E+00   0.00000000000000E+00   0.00000000000000E+00
      2.27157690151432E-18   0.00000000000000E+00   0.00000000000000E+00   0.00000000000000E+00   0.00000000000000E+00
     -7.65976259789314E-21  -5.74520279070137E-34  -7.65976259789372E-21  -1.17446845326656E-17   9.28723147127314E-02
      9.28723142581094E-02   0.00000000000000E+00   0.00000000000000E+00   2.11153135199488E-09   2.47926504262738E-35
      2.11153135199488E-09   4.87563133531612E-18
      1.17991063619455E-01
      0.00000000000000E+00   4.61040191803406E-10   0.00000000000000E+00   0.00000000000000E+00  -2.15479969866305E-09
      5.73576383071479E-34  -2.15479969866305E-09   4.59472375614683E-18   0.00000000000000E+00   0.00000000000000E+00
      0.00000000000000E+00   0.00000000000000E+00   0.00000000000000E+00   0.00000000000000E+00   0.00000000000000E+00
      2.17661941559075E-18   0.00000000000000E+00   0.00000000000000E+00   0.00000000000000E+00   0.00000000000000E+00
     -1.44989367445121E-20  -5.92319330413829E-34  -1.44989367445127E-20  -1.17447244643823E-17   1.01472314712731E-01
      1.01472314249121E-01   0.00000000000000E+00   0.00000000000000E+00   2.15479969867755E-09   1.87429473423493E-35
      2.15479969867755E-09   4.97338129264472E-18
      1.27991063619455E-01
      0.00000000000000E+00   4.70144504986712E-10   0.00000000000000E+00   0.00000000000000E+00  -2.19850506993071E-09
      5.79697751199559E-34  -2.19850506993071E-09   4.59197230519833E-18   0.00000000000000E+00   0.00000000000000E+00
      0.00000000000000E+00   0.00000000000000E+00   0.00000000000000E+00   0.00000000000000E+00   0.00000000000000E+00
      2.08170780257491E-18   0.00000000000000E+00   0.00000000000000E+00   0.00000000000000E+00   0.00000000000000E+00
     -1.21710085871479E-20  -5.93980377019562E-34  -1.21710085871484E-20  -1.17449109398627E-17   1.10072314712731E-01
      1.10072314240059E-01   0.00000000000000E+00   0.00000000000000E+00   2.19850506994288E-09   1.42826258200034E-35
      2.19850506994288E-09   5.07123083208946E-18
      1.37991063619455E-01
      0.00000000000000E+00   4.79354912120250E-10   0.00000000000000E+00   0.00000000000000E+00  -2.24275130907128E-09
      5.91169387802913E-34  -2.24275130907128E-09   4.58922185062500E-18   0.00000000000000E+00   0.00000000000000E+00
      0.00000000000000E+00   0.00000000000000E+00   0.00000000000000E+00   0.00000000000000E+00   0.00000000000000E+00
      1.98683744446724E-18   0.00000000000000E+00   0.00000000000000E+00   0.00000000000000E+00   0.00000000000000E+00
     -1.12294086245518E-20  -6.01750083820422E-34  -1.12294086245524E-20  -1.17452306172243E-17   1.18672314712731E-01
      1.18672314230900E-01   0.00000000000000E+00   0.00000000000000E+00   2.24275130908251E-09   1.05806960175087E-35
      2.24275130908251E-09   5.16917132213209E-18
      1.47991063619455E-01
      0.00000000000000E+00   4.88683081911898E-10   0.00000000000000E+00   0.00000000000000E+00  -2.28759225015110E-09
      5.87233943435222E-34  -2.28759225015110E-09   4.58647231532180E-18   0.00000000000000E+00   0.00000000000000E+00
      0.00000000000000E+00   0.00000000000000E+00   0.00000000000000E+00   0.00000000000000E+00   0.00000000000000E+00
      1.89200436794209E-18   0.00000000000000E+00   0.00000000000000E+00   0.00000000000000E+00   0.00000000000000E+00
     -1.52431658216990E-20  -5.95142802426360E-34  -1.52431658216996E-20  -1.17456716098967E-17   1.27272314712731E-01
      1.27272314221625E-01   0.00000000000000E+00   0.00000000000000E+00   2.28759225016634E-09   7.90885899113733E-36
      2.28759225016634E-09   5.26719492663280E-18
      1.57991063619455E-01
      0.00000000000000E+00   4.98132196283846E-10   0.00000000000000E+00   0.00000000000000E+00  -2.33304254178550E-09
      5.95461415862581E-34  -2.33304254178550E-09   4.58372363235372E-18   0.00000000000000E+00   0.00000000000000E+00
      0.00000000000000E+00   0.00000000000000E+00   0.00000000000000E+00   0.00000000000000E+00   0.00000000000000E+00
      1.79720513611887E-18   0.00000000000000E+00   0.00000000000000E+00   0.00000000000000E+00   0.00000000000000E+00
     -1.41393813311237E-20  -6.01564139160830E-34  -1.41393813311243E-20  -1.17462232867403E-17   1.35872314712731E-01
      1.35872314212225E-01   0.00000000000000E+00   0.00000000000000E+00   2.33304254179964E-09   6.10272329824893E-36
      2.33304254179964E-09   5.36529451826770E-18
      1.67991063619455E-01
      0.00000000000000E+00   5.07701223919287E-10   0.00000000000000E+00   0.00000000000000E+00  -2.37909627792490E-09
      5.88744296824125E-34  -2.37909627792490E-09   4.58097574151633E-18   0.00000000000000E+00   0.00000000000000E+00
      0.00000000000000E+00   0.00000000000000E+00   0.00000000000000E+00   0.00000000000000E+00   0.00000000000000E+00
      1.70243673801987E-18   0.00000000000000E+00   0.00000000000000E+00   0.00000000000000E+00   0.00000000000000E+00
      8.96881297003360E-22  -5.93125236936684E-34   8.96881297002767E-22  -1.17468760820455E-17   1.44472314712731E-01
      1.44472314202701E-01   0.00000000000000E+00   0.00000000000000E+00   2.37909627792400E-09   4.38094011255838E-36
      2.37909627792400E-09   5.46346360250930E-18
      1.77991063619455E-01
      0.00000000000000E+00   5.17387628575597E-10   0.00000000000000E+00   0.00000000000000E+00  -2.42574113196437E-09
      5.88802558606813E-34  -2.42574113196437E-09   4.57822858811499E-18   0.00000000000000E+00   0.00000000000000E+00
      0.00000000000000E+00   0.00000000000000E+00   0.00000000000000E+00   0.00000000000000E+00   0.00000000000000E+00
      1.60769650122852E-18   0.00000000000000E+00   0.00000000000000E+00   0.00000000000000E+00   0.00000000000000E+00
      6.87542942276832E-21  -5.92083591610733E-34   6.87542942276772E-21  -1.17476213410199E-17   1.53072314712731E-01
      1.53072314193055E-01   0.00000000000000E+00   0.00000000000000E+00   2.42574113195750E-09   3.28103300391930E-36
      2.42574113195750E-09   5.56169625167644E-18
      1.87991063619455E-01
      0.00000000000000E+00   5.27189086470269E-10   0.00000000000000E+00   0.00000000000000E+00  -2.47296651158677E-09