DF-ISE text

Info {
  version   = 1.0
  type      = xyplot
  datasets  = [
    "time"
    "source OuterVoltage" "source InnerVoltage" "source QuasiFermiPotential" "source DisplacementCurrent" "source eCurrent"
    "source hCurrent" "source TotalCurrent" "source Charge" "gate OuterVoltage" "gate InnerVoltage"
    "gate QuasiFermiPotential" "gate DisplacementCurrent" "gate eCurrent" "gate hCurrent" "gate TotalCurrent"
    "gate Charge" "substrate OuterVoltage" "substrate InnerVoltage" "substrate QuasiFermiPotential" "substrate DisplacementCurrent"
    "substrate eCurrent" "substrate hCurrent" "substrate TotalCurrent" "substrate Charge" "drain OuterVoltage"
    "drain InnerVoltage" "drain QuasiFermiPotential" "drain DisplacementCurrent" "drain eCurrent" "drain hCurrent"
    "drain TotalCurrent" "drain Charge" ]
  functions = [
    Time
    OuterVoltage InnerVoltage QuasiFermiPotential DisplacementCurrent eCurrent
    hCurrent TotalCurrent Charge OuterVoltage InnerVoltage
    QuasiFermiPotential DisplacementCurrent eCurrent hCurrent TotalCurrent
    Charge OuterVoltage InnerVoltage QuasiFermiPotential DisplacementCurrent
    eCurrent hCurrent TotalCurrent Charge OuterVoltage
    InnerVoltage QuasiFermiPotential DisplacementCurrent eCurrent hCurrent
    TotalCurrent Charge ]
}

Data {
      0.00000000000000E+00
      0.00000000000000E+00   0.00000000000000E+00   0.00000000000000E+00   0.00000000000000E+00   8.36994354210720E-21
     -1.26083377554577E-34   8.36994354210708E-21   4.35692816265709E-18   0.00000000000000E+00   0.00000000000000E+00
      0.00000000000000E+00   0.00000000000000E+00   0.00000000000000E+00   0.00000000000000E+00   0.00000000000000E+00
      1.44259979272228E-18   0.00000000000000E+00   0.00000000000000E+00   0.00000000000000E+00   0.00000000000000E+00
     -6.19068681633677E-21   2.73205238725422E-34  -6.19068681633650E-21  -9.85196878697170E-18   0.00000000000000E+00
      0.00000000000000E+00   0.00000000000000E+00   0.00000000000000E+00  -2.17925672577043E-21  -1.47121861170846E-34
     -2.17925672577058E-21   4.05244083159236E-18
      0.00000000000000E+00
      0.00000000000000E+00   0.00000000000000E+00   0.00000000000000E+00   0.00000000000000E+00  -5.31053183784922E-20
     -1.15514735092668E-34  -5.31053183784923E-20   4.35531347319188E-18   0.00000000000000E+00   0.00000000000000E+00
      0.00000000000000E+00   0.00000000000000E+00   0.00000000000000E+00   0.00000000000000E+00   0.00000000000000E+00
      1.43791263784155E-18   0.00000000000000E+00   0.00000000000000E+00   0.00000000000000E+00   0.00000000000000E+00
      8.86600456476534E-20   2.56101471816550E-34   8.86600456476536E-20  -9.84431002395050E-18   0.00000000000000E+00
      0.00000000000000E+00   0.00000000000000E+00   0.00000000000000E+00  -3.55547272691612E-20  -1.40586736723882E-34
     -3.55547272691614E-20   4.05108391291709E-18
      1.00000000000000E-03
      0.00000000000000E+00   4.90913211302886E-12   0.00000000000000E+00   0.00000000000000E+00  -2.13384451938355E-11
     -1.27560290229892E-34  -2.13384451938355E-11   4.35528664614153E-18   0.00000000000000E+00   0.00000000000000E+00
      0.00000000000000E+00   0.00000000000000E+00   0.00000000000000E+00   0.00000000000000E+00   0.00000000000000E+00
      1.43730003748529E-18   0.00000000000000E+00   0.00000000000000E+00   0.00000000000000E+00   0.00000000000000E+00
      1.87311909099616E-19   2.56404479076365E-34   1.87311909099616E-19  -9.84426956526908E-18   5.00000000000000E-05
      4.99999950671611E-05   0.00000000000000E+00   0.00000000000000E+00   2.13384450065236E-11  -1.28844188846473E-34
      2.13384450065236E-11   4.05168288164227E-18
      2.09333333333333E-03
      0.00000000000000E+00   1.02589697169559E-11   0.00000000000000E+00   0.00000000000000E+00  -4.45925170090578E-11
     -1.07171006428445E-34  -4.45925170090578E-11   4.35525731577222E-18   0.00000000000000E+00   0.00000000000000E+00
      0.00000000000000E+00   0.00000000000000E+00   0.00000000000000E+00   0.00000000000000E+00   0.00000000000000E+00
      1.43663027190238E-18   0.00000000000000E+00   0.00000000000000E+00   0.00000000000000E+00   0.00000000000000E+00
      4.20298618414776E-19   2.39487228463806E-34   4.20298618414776E-19  -9.84422535806101E-18   1.04666666666667E-04
      1.04666656358146E-04   0.00000000000000E+00   0.00000000000000E+00   4.45925165887592E-11  -1.32316222035361E-34
      4.45925165887592E-11   4.05233777038640E-18
      3.29600000000000E-03
      0.00000000000000E+00   1.61217681262892E-11   0.00000000000000E+00   0.00000000000000E+00  -7.00762375588943E-11
     -1.20754961901090E-34  -7.00762375588943E-11   4.35522505302024E-18   0.00000000000000E+00   0.00000000000000E+00
      0.00000000000000E+00   0.00000000000000E+00   0.00000000000000E+00   0.00000000000000E+00   0.00000000000000E+00
      1.43589354278909E-18   0.00000000000000E+00   0.00000000000000E+00   0.00000000000000E+00   0.00000000000000E+00
      1.34663668287973E-19   2.57004350455929E-34   1.34663668287974E-19  -9.84417676342953E-18   1.64800000000000E-04
      1.64799983800361E-04   0.00000000000000E+00   0.00000000000000E+00   7.00762374242306E-11  -1.36249388554839E-34
      7.00762374242306E-11   4.05305816762021E-18
      4.61893333333333E-03
      0.00000000000000E+00   2.25435689311665E-11   0.00000000000000E+00   0.00000000000000E+00  -9.79896392682440E-11
     -1.63859079947949E-34  -9.79896392682440E-11   4.35518956478740E-18   0.00000000000000E+00   0.00000000000000E+00
      0.00000000000000E+00   0.00000000000000E+00   0.00000000000000E+00   0.00000000000000E+00   0.00000000000000E+00
      1.43508315651459E-18   0.00000000000000E+00   0.00000000000000E+00   0.00000000000000E+00   0.00000000000000E+00
      1.97634554817216E-19   2.98076020994325E-34   1.97634554817216E-19  -9.84412334959631E-18   2.30946666666667E-04
      2.30946644014243E-04   0.00000000000000E+00   0.00000000000000E+00   9.79896390706094E-11  -1.34216941046376E-34
      9.79896390706094E-11   4.05385062829431E-18
      6.07416000000000E-03
      0.00000000000000E+00   2.95739762377820E-11   0.00000000000000E+00   0.00000000000000E+00  -1.28548364472728E-10
     -1.36873198255040E-34  -1.28548364472728E-10   4.35515052869449E-18   0.00000000000000E+00   0.00000000000000E+00
      0.00000000000000E+00   0.00000000000000E+00   0.00000000000000E+00   0.00000000000000E+00   0.00000000000000E+00
      1.43419175065187E-18   0.00000000000000E+00   0.00000000000000E+00   0.00000000000000E+00   0.00000000000000E+00
      1.95561953289050E-19   2.96123218158082E-34   1.95561953289050E-19  -9.84406464305793E-18   3.03708000000000E-04
      3.03707970283250E-04   0.00000000000000E+00   0.00000000000000E+00   1.28548364277166E-10  -1.59250019903042E-34
      1.28548364277166E-10   4.05472236371160E-18
      7.67490933333333E-03
      0.00000000000000E+00   3.72663120979421E-11   0.00000000000000E+00   0.00000000000000E+00  -1.61984101707087E-10
     -1.21069033038534E-34  -1.61984101707087E-10   4.35510759015961E-18   0.00000000000000E+00   0.00000000000000E+00
      0.00000000000000E+00   0.00000000000000E+00   0.00000000000000E+00   0.00000000000000E+00   0.00000000000000E+00
      1.43321122721589E-18   0.00000000000000E+00   0.00000000000000E+00   0.00000000000000E+00   0.00000000000000E+00
     -1.55852481646162E-19   2.76146864446787E-34  -1.55852481646162E-19  -9.84400012471655E-18   3.83745466666667E-04
      3.83745429220480E-04   0.00000000000000E+00   0.00000000000000E+00   1.61984101862939E-10  -1.55077831408254E-34
      1.61984101862939E-10   4.05568130734106E-18
      9.43573360000000E-03
      0.00000000000000E+00   4.56776800938830E-11   0.00000000000000E+00   0.00000000000000E+00  -1.98544967049003E-10
     -1.38921643167881E-34  -1.98544967049003E-10   4.35506035918512E-18   0.00000000000000E+00   0.00000000000000E+00
      0.00000000000000E+00   0.00000000000000E+00   0.00000000000000E+00   0.00000000000000E+00   0.00000000000000E+00
      1.43213267924931E-18   0.00000000000000E+00   0.00000000000000E+00   0.00000000000000E+00   0.00000000000000E+00
     -4.36798971679203E-20   3.14292924842581E-34  -4.36798971679200E-20  -9.84392922568363E-18   4.71786680000000E-04
      4.71786634101894E-04   0.00000000000000E+00   0.00000000000000E+00   1.98544967092683E-10  -1.75371281674700E-34
      1.98544967092683E-10   4.05673618724920E-18
      1.13726402933333E-02
      0.00000000000000E+00   5.48690139100071E-11   0.00000000000000E+00   0.00000000000000E+00  -2.38495732734677E-10
     -1.16444616498691E-34  -2.38495732734677E-10   4.35500840682516E-18   0.00000000000000E+00   0.00000000000000E+00
      0.00000000000000E+00   0.00000000000000E+00   0.00000000000000E+00   0.00000000000000E+00   0.00000000000000E+00
      1.43094631009645E-18   0.00000000000000E+00   0.00000000000000E+00   0.00000000000000E+00   0.00000000000000E+00
     -2.58448683928995E-19   2.47784412977768E-34  -2.58448683928994E-19  -9.84385132274201E-18   5.68632014666667E-04
      5.68631959532925E-04   0.00000000000000E+00   0.00000000000000E+00   2.38495732993126E-10  -1.31339796479077E-34
      2.38495732993126E-10   4.05789660582039E-18
      1.35032376560000E-02
      0.00000000000000E+00   6.49050932290873E-11   0.00000000000000E+00   0.00000000000000E+00  -2.82117828066601E-10
     -1.58578238634310E-34  -2.82117828066601E-10   4.35495126130135E-18   0.00000000000000E+00   0.00000000000000E+00
      0.00000000000000E+00   0.00000000000000E+00   0.00000000000000E+00   0.00000000000000E+00   0.00000000000000E+00
      1.42964134463926E-18   0.00000000000000E+00   0.00000000000000E+00   0.00000000000000E+00   0.00000000000000E+00
      1.04536444269650E-18   3.00328738100611E-34   1.04536444269650E-18  -9.84376573344283E-18   6.75161882800000E-04
      6.75161817581850E-04   0.00000000000000E+00   0.00000000000000E+00   2.82117827021237E-10  -1.41750499466301E-34
      2.82117827021237E-10   4.05917312750222E-18
      1.58468947549333E-02
      0.00000000000000E+00   7.58544563031423E-11   0.00000000000000E+00   0.00000000000000E+00  -3.29709033101410E-10
     -1.57516637787175E-34  -3.29709033101410E-10   4.35488840373258E-18   0.00000000000000E+00   0.00000000000000E+00
      0.00000000000000E+00   0.00000000000000E+00   0.00000000000000E+00   0.00000000000000E+00   0.00000000000000E+00
      1.42820593169912E-18   0.00000000000000E+00   0.00000000000000E+00   0.00000000000000E+00   0.00000000000000E+00
      5.48020205548652E-21   2.96628403880198E-34   5.48020205548681E-21  -9.84367171082206E-18   7.92344737746667E-04
      7.92344661526446E-04   0.00000000000000E+00   0.00000000000000E+00   3.29709033095930E-10  -1.39111766093023E-34
      3.29709033095930E-10   4.06057737539037E-18
      1.84249175637600E-02
      0.00000000000000E+00   8.77892498226159E-11   0.00000000000000E+00   0.00000000000000E+00  -3.81582804543012E-10
     -1.37306684137181E-34  -3.81582804543012E-10   4.35481926344020E-18   0.00000000000000E+00   0.00000000000000E+00
      0.00000000000000E+00   0.00000000000000E+00   0.00000000000000E+00   0.00000000000000E+00   0.00000000000000E+00
      1.42662703672955E-18   0.00000000000000E+00   0.00000000000000E+00   0.00000000000000E+00   0.00000000000000E+00
      4.17104686546219E-19   2.86194404495177E-34   4.17104686546219E-19  -9.84356843772016E-18   9.21245878188001E-04
      9.21245789975553E-04   0.00000000000000E+00   0.00000000000000E+00   3.81582804125907E-10  -1.48887720357996E-34
      3.81582804125907E-10   4.06212213755040E-18
      2.12607426534693E-02
      0.00000000000000E+00   1.00785007252637E-10   0.00000000000000E+00   0.00000000000000E+00  -4.38067094466972E-10
     -1.17165867963872E-34  -4.38067094466972E-10   4.35474321278683E-18   0.00000000000000E+00   0.00000000000000E+00
      0.00000000000000E+00   0.00000000000000E+00   0.00000000000000E+00   0.00000000000000E+00   0.00000000000000E+00
      1.42489032383857E-18   0.00000000000000E+00   0.00000000000000E+00   0.00000000000000E+00   0.00000000000000E+00
      5.11968638338686E-19   2.51399292780434E-34   5.11968638338686E-19  -9.84345502069046E-18   1.06303713267347E-03
      1.06303703140278E-03   0.00000000000000E+00   0.00000000000000E+00   4.38067093955003E-10  -1.34233424816562E-34
      4.38067093955003E-10   4.06382148406505E-18
      2.43801502521496E-02
      0.00000000000000E+00   1.14920144570086E-10   0.00000000000000E+00   0.00000000000000E+00  -4.99502590240940E-10
     -1.48076349073418E-34  -4.99502590240940E-10   4.35465956150312E-18   0.00000000000000E+00   0.00000000000000E+00
      0.00000000000000E+00   0.00000000000000E+00   0.00000000000000E+00   0.00000000000000E+00   0.00000000000000E+00
      1.42298002608771E-18   0.00000000000000E+00   0.00000000000000E+00   0.00000000000000E+00   0.00000000000000E+00
      6.47529741275513E-19   2.62762043351191E-34   6.47529741275514E-19  -9.84333048349121E-18   1.21900751260748E-03
      1.21900739713372E-03   0.00000000000000E+00   0.00000000000000E+00   4.99502589593410E-10  -1.14685694277773E-34
      4.99502589593410E-10   4.06569089590041E-18
      2.78114986106979E-02
      0.00000000000000E+00   1.30275498390542E-10   0.00000000000000E+00   0.00000000000000E+00  -5.66240240375552E-10
     -1.23295777639752E-34  -5.66240240375552E-10   4.35456755045133E-18   0.00000000000000E+00   0.00000000000000E+00
      0.00000000000000E+00   0.00000000000000E+00   0.00000000000000E+00   0.00000000000000E+00   0.00000000000000E+00
      1.42087880290539E-18   0.00000000000000E+00   0.00000000000000E+00   0.00000000000000E+00   0.00000000000000E+00
      1.89866937628455E-18   2.59939965831974E-34   1.89866937628455E-18  -9.84319376014996E-18   1.39057493053490E-03
      1.39057479963205E-03   0.00000000000000E+00   0.00000000000000E+00   5.66240238476883E-10  -1.36644188192223E-34
      5.66240238476883E-10   4.06774740679320E-18
      3.15859818051010E-02
      0.00000000000000E+00   1.46933494950038E-10   0.00000000000000E+00   0.00000000000000E+00  -6.38637929853457E-10
     -1.34717107811572E-34  -6.38637929853457E-10   4.35446634477083E-18   0.00000000000000E+00   0.00000000000000E+00
      0.00000000000000E+00   0.00000000000000E+00   0.00000000000000E+00   0.00000000000000E+00   0.00000000000000E+00
      1.41856758334517E-18   0.00000000000000E+00   0.00000000000000E+00   0.00000000000000E+00   0.00000000000000E+00
      3.55679960164149E-18   2.61678888717583E-34   3.55679960164149E-18  -9.84304368760604E-18   1.57929909025505E-03
      1.57929894261427E-03   0.00000000000000E+00   0.00000000000000E+00   6.38637926296657E-10  -1.26961780906012E-34
      6.38637926296657E-10   4.07000975949006E-18
      3.57379133189445E-02
      0.00000000000000E+00   1.64977149527293E-10   0.00000000000000E+00   0.00000000000000E+00  -7.17056071010367E-10
     -1.52663385652973E-34  -7.17056071010367E-10   4.35435502634476E-18   0.00000000000000E+00   0.00000000000000E+00
      0.00000000000000E+00   0.00000000000000E+00   0.00000000000000E+00   0.00000000000000E+00   0.00000000000000E+00
      1.41602539380959E-18   0.00000000000000E+00   0.00000000000000E+00   0.00000000000000E+00   0.00000000000000E+00
      4.55484953821102E-18   2.92085373959443E-34   4.55484953821102E-18  -9.84287899796698E-18   1.78689566594722E-03
      1.78689550017627E-03   0.00000000000000E+00   0.00000000000000E+00   7.17056066455518E-10  -1.39421988306470E-34
      7.17056066455518E-10   4.07249857781265E-18
      4.03050379841723E-02
      0.00000000000000E+00   1.84488876877748E-10   0.00000000000000E+00   0.00000000000000E+00  -8.01852157758460E-10
     -1.50952283354708E-34  -8.01852157758460E-10   4.35423258552060E-18   0.00000000000000E+00   0.00000000000000E+00
      0.00000000000000E+00   0.00000000000000E+00   0.00000000000000E+00   0.00000000000000E+00   0.00000000000000E+00
      1.41322916865653E-18   0.00000000000000E+00   0.00000000000000E+00   0.00000000000000E+00   0.00000000000000E+00
      6.85362651261983E-18   2.83632905084739E-34   6.85362651261983E-18  -9.84269831032677E-18   2.01525189920861E-03
      2.01525171383247E-03   0.00000000000000E+00   0.00000000000000E+00   8.01852150904833E-10  -1.32680621730032E-34
      8.01852150904833E-10   4.07523655614963E-18
      4.53288751159228E-02
      0.00000000000000E+00   2.05548775326595E-10   0.00000000000000E+00   0.00000000000000E+00  -8.93373783400456E-10
     -1.37151041971143E-34  -8.93373783400456E-10   4.35409791201231E-18   0.00000000000000E+00   0.00000000000000E+00
      0.00000000000000E+00   0.00000000000000E+00   0.00000000000000E+00   0.00000000000000E+00   0.00000000000000E+00
      1.41015354209435E-18   0.00000000000000E+00   0.00000000000000E+00   0.00000000000000E+00   0.00000000000000E+00
      9.97091230781922E-18   2.89347143264405E-34   9.97091230781922E-18  -9.84250012230697E-18   2.26644375579614E-03
      2.26644354925931E-03   0.00000000000000E+00   0.00000000000000E+00   8.93373773429543E-10  -1.52196101293262E-34
      8.93373773429543E-10   4.07824866820027E-18
      5.08550959608485E-02
      0.00000000000000E+00   2.28232793406523E-10   0.00000000000000E+00   0.00000000000000E+00  -9.91950226927768E-10
     -1.61011236934366E-34  -9.91950226927768E-10   4.35394978490312E-18   0.00000000000000E+00   0.00000000000000E+00
      0.00000000000000E+00   0.00000000000000E+00   0.00000000000000E+00   0.00000000000000E+00   0.00000000000000E+00
      1.40677061944483E-18   0.00000000000000E+00   0.00000000000000E+00   0.00000000000000E+00   0.00000000000000E+00
      5.17058060498702E-18   2.92196883392318E-34   5.17058060498702E-18  -9.84228280126404E-18   2.54275479804242E-03
      2.54275456871312E-03   0.00000000000000E+00   0.00000000000000E+00   9.91950221757187E-10  -1.31185646457952E-34
      9.91950221757187E-10   4.08156239691607E-18
      5.69339388902666E-02
      0.00000000000000E+00   2.52610348076414E-10   0.00000000000000E+00   0.00000000000000E+00  -1.09788234806226E-09
     -1.37783345266788E-34  -1.09788234806226E-09   4.35378686166286E-18   0.00000000000000E+00   0.00000000000000E+00
      0.00000000000000E+00   0.00000000000000E+00   0.00000000000000E+00   0.00000000000000E+00   0.00000000000000E+00
      1.40304972580560E-18   0.00000000000000E+00   0.00000000000000E+00   0.00000000000000E+00   0.00000000000000E+00
      1.01300594659298E-16   2.64833643338714E-34   1.01300594659298E-16  -9.84204457532381E-18   2.84669694451333E-03
      2.84669669069007E-03   0.00000000000000E+00   0.00000000000000E+00   1.09788224676166E-09  -1.27050298071925E-34
      1.09788224676166E-09   4.08520798785534E-18
      6.36206661126266E-02
      0.00000000000000E+00   2.78741543768666E-10   0.00000000000000E+00   0.00000000000000E+00  -1.21143023412494E-09
     -1.39760029929218E-34  -1.21143023412494E-09   4.35360766607875E-18   0.00000000000000E+00   0.00000000000000E+00
      0.00000000000000E+00   0.00000000000000E+00   0.00000000000000E+00   0.00000000000000E+00   0.00000000000000E+00
      1.39895712984001E-18   0.00000000000000E+00   0.00000000000000E+00   0.00000000000000E+00   0.00000000000000E+00
      3.45516877197981E-17   2.75917909698389E-34   3.45516877197981E-17  -9.84178352424969E-18   3.18103330563133E-03
      3.18103302555223E-03   0.00000000000000E+00   0.00000000000000E+00   1.21143019957325E-09  -1.36157879769172E-34
      1.21143019957325E-09   4.08921872833091E-18
      7.09760660572226E-02
      0.00000000000000E+00   3.06673965771501E-10   0.00000000000000E+00   0.00000000000000E+00  -1.33279998579795E-09
     -1.43172577754200E-34  -1.33279998579795E-09   4.35341057500205E-18   0.00000000000000E+00   0.00000000000000E+00
      0.00000000000000E+00   0.00000000000000E+00   0.00000000000000E+00   0.00000000000000E+00   0.00000000000000E+00
      1.39445574036866E-18   0.00000000000000E+00   0.00000000000000E+00   0.00000000000000E+00   0.00000000000000E+00
      1.87405105505165E-16   2.67385483220935E-34   1.87405105505165E-16  -9.84149757046371E-18   3.54880330286113E-03
      3.54880299471654E-03   0.00000000000000E+00   0.00000000000000E+00   1.33279979839285E-09  -1.24212905466735E-34
      1.33279979839285E-09   4.09363125509300E-18
      7.90670059962782E-02
      0.00000000000000E+00   3.36439079738636E-10   0.00000000000000E+00   0.00000000000000E+00  -1.46212666293223E-09
     -1.37089071470723E-34  -1.46212666293223E-09   4.35319380378199E-18   0.00000000000000E+00   0.00000000000000E+00
      0.00000000000000E+00   0.00000000000000E+00   0.00000000000000E+00   0.00000000000000E+00   0.00000000000000E+00
      1.38950477291738E-18   0.00000000000000E+00   0.00000000000000E+00   0.00000000000000E+00   0.00000000000000E+00
      1.20617685434919E-16   2.61364359247303E-34   1.20617685434919E-16  -9.84118447011130E-18   3.95335029981391E-03
      3.95334996176260E-03   0.00000000000000E+00   0.00000000000000E+00   1.46212654231454E-09  -1.24275287776580E-34
      1.46212654231454E-09   4.09848589341194E-18
      8.79670399292394E-02
      0.00000000000000E+00   3.68047940597192E-10   0.00000000000000E+00   0.00000000000000E+00  -1.59945738039566E-09
     -1.41198433234248E-34  -1.59945738039566E-09   4.35295539027693E-18   0.00000000000000E+00   0.00000000000000E+00
      0.00000000000000E+00   0.00000000000000E+00   0.00000000000000E+00   0.00000000000000E+00   0.00000000000000E+00
      1.38405938354936E-18   0.00000000000000E+00   0.00000000000000E+00   0.00000000000000E+00   0.00000000000000E+00
      1.09881377331253E-16   2.66750877834102E-34   1.09881377331253E-16  -9.84084180476450E-18   4.39835199646197E-03
      4.39835162665164E-03   0.00000000000000E+00   0.00000000000000E+00   1.59945727051428E-09  -1.25552444599854E-34
      1.59945727051428E-09   4.10382703093822E-18
      9.77570772554967E-02
      0.00000000000000E+00   4.01486757506626E-10   0.00000000000000E+00   0.00000000000000E+00  -1.74473111392616E-09
     -1.21789949801153E-34  -1.74473111392616E-09   4.35269317728662E-18   0.00000000000000E+00   0.00000000000000E+00
      0.00000000000000E+00   0.00000000000000E+00   0.00000000000000E+00   0.00000000000000E+00   0.00000000000000E+00
      1.37807026653533E-18   0.00000000000000E+00   0.00000000000000E+00   0.00000000000000E+00   0.00000000000000E+00
      8.05026825990014E-17   2.36405685396908E-34   8.05026825990014E-17  -9.84046697371297E-18   4.88785386277484E-03
      4.88785345936708E-03   0.00000000000000E+00   0.00000000000000E+00   1.74473103342348E-09  -1.14615735595755E-34
      1.74473103342348E-09   4.10970352989102E-18
      1.07757077255497E-01
      0.00000000000000E+00   4.34249273044265E-10   0.00000000000000E+00   0.00000000000000E+00  -1.88705920132195E-09
     -1.33476337140391E-34  -1.88705920132195E-09   4.35242538567011E-18   0.00000000000000E+00   0.00000000000000E+00
      0.00000000000000E+00   0.00000000000000E+00   0.00000000000000E+00   0.00000000000000E+00   0.00000000000000E+00
      1.37195357498803E-18   0.00000000000000E+00   0.00000000000000E+00   0.00000000000000E+00   0.00000000000000E+00
      1.86078640788787E-16   2.51451415899154E-34   1.86078640788787E-16  -9.84008636376823E-18   5.38785386277483E-03
      5.38785342644945E-03   0.00000000000000E+00   0.00000000000000E+00   1.88705901524331E-09  -1.17975078758763E-34
      1.88705901524331E-09   4.11570740311007E-18
      1.17757077255497E-01
      0.00000000000000E+00   4.65651603348760E-10   0.00000000000000E+00   0.00000000000000E+00  -2.02347151711915E-09
     -1.34629720842107E-34  -2.02347151711915E-09   4.35215763911311E-18   0.00000000000000E+00   0.00000000000000E+00
      0.00000000000000E+00   0.00000000000000E+00   0.00000000000000E+00   0.00000000000000E+00   0.00000000000000E+00
      1.36583775785555E-18   0.00000000000000E+00   0.00000000000000E+00   0.00000000000000E+00   0.00000000000000E+00
      1.88221392886482E-16   2.79135535841441E-34   1.88221392886482E-16  -9.83970802494642E-18   5.88785386277483E-03
      5.88785339489871E-03   0.00000000000000E+00   0.00000000000000E+00   2.02347132889776E-09  -1.44505814999333E-34
      2.02347132889776E-09   4.12171262797778E-18
      1.27757077255497E-01
      0.00000000000000E+00   4.95741747009648E-10   0.00000000000000E+00   0.00000000000000E+00  -2.15417771221966E-09
     -1.32544709129415E-34  -2.15417771221966E-09   4.35188993724538E-18   0.00000000000000E+00   0.00000000000000E+00
      0.00000000000000E+00   0.00000000000000E+00   0.00000000000000E+00   0.00000000000000E+00   0.00000000000000E+00
      1.35972280877932E-18   0.00000000000000E+00   0.00000000000000E+00   0.00000000000000E+00   0.00000000000000E+00
      1.86087831325147E-16   2.63243946133916E-34   1.86087831325147E-16  -9.83933194433178E-18   6.38785386277483E-03
      6.38785336466659E-03   0.00000000000000E+00   0.00000000000000E+00   2.15417752613183E-09  -1.30699237004502E-34
      2.15417752613183E-09   4.12771919830707E-18
      1.37757077255497E-01
      0.00000000000000E+00   5.24566834507077E-10   0.00000000000000E+00   0.00000000000000E+00  -2.27938349848368E-09
     -1.34304867201020E-34  -2.27938349848368E-09   4.35162227969865E-18   0.00000000000000E+00   0.00000000000000E+00
      0.00000000000000E+00   0.00000000000000E+00   0.00000000000000E+00   0.00000000000000E+00   0.00000000000000E+00
      1.35360872153155E-18   0.00000000000000E+00   0.00000000000000E+00   0.00000000000000E+00   0.00000000000000E+00
      1.83964854563995E-16   2.44161803763008E-34   1.83964854563995E-16  -9.83895810921789E-18   6.88785386277483E-03
      6.88785333570574E-03   0.00000000000000E+00   0.00000000000000E+00   2.27938331451883E-09  -1.09856936561988E-34
      2.27938331451883E-09   4.13372710798770E-18
      1.47757077255497E-01
      0.00000000000000E+00   5.52173135276782E-10   0.00000000000000E+00   0.00000000000000E+00  -2.39929102945695E-09
     -1.14806684302886E-34  -2.39929102945695E-09   4.35135466609588E-18   0.00000000000000E+00   0.00000000000000E+00
      0.00000000000000E+00   0.00000000000000E+00   0.00000000000000E+00   0.00000000000000E+00   0.00000000000000E+00
      1.34749548982127E-18   0.00000000000000E+00   0.00000000000000E+00   0.00000000000000E+00   0.00000000000000E+00
      1.82211360391185E-16   2.28813555396691E-34   1.82211360391185E-16  -9.83858650681879E-18   7.38785386277483E-03
      7.38785330796962E-03   0.00000000000000E+00   0.00000000000000E+00   2.39929084724559E-09  -1.14006871093805E-34
      2.39929084724559E-09   4.13973635090162E-18
      1.57757077255497E-01
      0.00000000000000E+00   5.78605852825675E-10   0.00000000000000E+00   0.00000000000000E+00  -2.51409743889219E-09
     -1.34312076614961E-34  -2.51409743889219E-09   4.35108709606112E-18   0.00000000000000E+00   0.00000000000000E+00
      0.00000000000000E+00   0.00000000000000E+00   0.00000000000000E+00   0.00000000000000E+00   0.00000000000000E+00
      1.34138310745732E-18   0.00000000000000E+00   0.00000000000000E+00   0.00000000000000E+00   0.00000000000000E+00
     -2.66972496414062E-19   2.54758247816139E-34  -2.66972496414062E-19  -9.83821712451013E-18   7.88785386277484E-03
      7.88785328141291E-03   0.00000000000000E+00   0.00000000000000E+00   2.51409743915916E-09  -1.20446171201178E-34
      2.51409743915916E-09   4.14574692099168E-18
      1.67757077255497E-01
      0.00000000000000E+00   6.03909294291354E-10   0.00000000000000E+00   0.00000000000000E+00  -2.62399651899694E-09
     -1.41836164162122E-34  -2.62399651899694E-09   4.35081956921751E-18   0.00000000000000E+00   0.00000000000000E+00
      0.00000000000000E+00   0.00000000000000E+00   0.00000000000000E+00   0.00000000000000E+00   0.00000000000000E+00
      1.33527156824659E-18   0.00000000000000E+00   0.00000000000000E+00   0.00000000000000E+00   0.00000000000000E+00
      1.78795131917644E-16   2.57264439559461E-34   1.78795131917644E-16  -9.83784994967914E-18   8.38785386277484E-03
      8.38785325599082E-03   0.00000000000000E+00   0.00000000000000E+00   2.62399634020181E-09  -1.15428275397339E-34
      2.62399634020181E-09   4.15175881221502E-18
      1.77757077255497E-01
      0.00000000000000E+00   6.28126352932342E-10   0.00000000000000E+00   0.00000000000000E+00  -2.72917506906702E-09
     -1.42365657726349E-34  -2.72917506906702E-09   4.35055208518770E-18   0.00000000000000E+00   0.00000000000000E+00
      0.00000000000000E+00   0.00000000000000E+00   0.00000000000000E+00   0.00000000000000E+00   0.00000000000000E+00
      1.32916086605573E-18   0.00000000000000E+00   0.00000000000000E+00   0.00000000000000E+00   0.00000000000000E+00
      1.78847703031605E-16   2.60232286752746E-34   1.78847703031605E-16  -9.83748496982516E-18   8.88785386277484E-03
      8.88785323166050E-03   0.00000000000000E+00   0.00000000000000E+00   2.72917489021932E-09  -1.17866629026397E-34
      2.72917489021932E-09   4.15777201858171E-18
      1.87757077255497E-01
      0.00000000000000E+00   6.51298946156826E-10   0.00000000000000E+00   0.00000000000000E+00  -2.82981607945552E-09
     -1.18832843523685E-34  -2.82981607945552E-09   4.35028464359344E-18   0.00000000000000E+00   0.00000000000000E+00
      0.00000000000000E+00   0.00000000000000E+00   0.00000000000000E+00   0.00000000000000E+00   0.00000000000000E+00
      1.32305099477292E-18   0.00000000000000E+00   0.00000000000000E+00   0.00000000000000E+00   0.00000000000000E+00
      1.23046397889488E-16   2.17131435898773E-34   1.23046397889488E-16  -9.83712217249683E-18   9.38785386277484E-03
      9.38785320837977E-03   0.00000000000000E+00   0.00000000000000E+00   2.82981595640913E-09  -9.82985923750882E-35
      2.82981595640913E-09   4.16378653413047E-18
      1.97757077255497E-01
      0.00000000000000E+00   6.73467677286754E-10   0.00000000000000E+00   0.00000000000000E+00  -2.92609710030028E-09