DF-ISE text

Info {
  version   = 1.0
  type      = xyplot
  datasets  = [
    "time"
    "source OuterVoltage" "source InnerVoltage" "source QuasiFermiPotential" "source DisplacementCurrent" "source eCurrent"
    "source hCurrent" "source TotalCurrent" "source Charge" "gate OuterVoltage" "gate InnerVoltage"
    "gate QuasiFermiPotential" "gate DisplacementCurrent" "gate eCurrent" "gate hCurrent" "gate TotalCurrent"
    "gate Charge" "substrate OuterVoltage" "substrate InnerVoltage" "substrate QuasiFermiPotential" "substrate DisplacementCurrent"
    "substrate eCurrent" "substrate hCurrent" "substrate TotalCurrent" "substrate Charge" "drain OuterVoltage"
    "drain InnerVoltage" "drain QuasiFermiPotential" "drain DisplacementCurrent" "drain eCurrent" "drain hCurrent"
    "drain TotalCurrent" "drain Charge" ]
  functions = [
    Time
    OuterVoltage InnerVoltage QuasiFermiPotential DisplacementCurrent eCurrent
    hCurrent TotalCurrent Charge OuterVoltage InnerVoltage
    QuasiFermiPotential DisplacementCurrent eCurrent hCurrent TotalCurrent
    Charge OuterVoltage InnerVoltage QuasiFermiPotential DisplacementCurrent
    eCurrent hCurrent TotalCurrent Charge OuterVoltage
    InnerVoltage QuasiFermiPotential DisplacementCurrent eCurrent hCurrent
    TotalCurrent Charge ]
}

Data {
      0.00000000000000E+00
      0.00000000000000E+00   0.00000000000000E+00   0.00000000000000E+00   0.00000000000000E+00   2.31307156612092E-22
     -1.11056010642820E-34   2.31307156611981E-22   3.74474623829405E-18   0.00000000000000E+00   0.00000000000000E+00
      0.00000000000000E+00   0.00000000000000E+00   0.00000000000000E+00   0.00000000000000E+00   0.00000000000000E+00
      2.46031060419872E-18   0.00000000000000E+00   0.00000000000000E+00   0.00000000000000E+00   0.00000000000000E+00
      8.32246391383852E-22   3.07008126261317E-34   8.32246391384159E-22  -9.26196697572901E-18   0.00000000000000E+00
      0.00000000000000E+00   0.00000000000000E+00   0.00000000000000E+00  -1.06355354799594E-21  -1.95952115618497E-34
     -1.06355354799614E-21   3.05691013323627E-18
      0.00000000000000E+00
      0.00000000000000E+00   0.00000000000000E+00   0.00000000000000E+00   0.00000000000000E+00  -5.08157767445210E-21
     -1.11199815525353E-34  -5.08157767445221E-21   3.74320239246217E-18   0.00000000000000E+00   0.00000000000000E+00
      0.00000000000000E+00   0.00000000000000E+00   0.00000000000000E+00   0.00000000000000E+00   0.00000000000000E+00
      2.45501121951319E-18   0.00000000000000E+00   0.00000000000000E+00   0.00000000000000E+00   0.00000000000000E+00
      1.53315226408835E-20   3.30954196641859E-34   1.53315226408838E-20  -9.25402961597238E-18   0.00000000000000E+00
      0.00000000000000E+00   0.00000000000000E+00   0.00000000000000E+00  -1.02499449664314E-20  -2.19754381116506E-34
     -1.02499449664316E-20   3.05581600399701E-18
      1.00000000000000E-03
      0.00000000000000E+00   3.90561783219567E-11   0.00000000000000E+00   0.00000000000000E+00  -1.56754043579464E-10
     -1.17746329876804E-34  -1.56754043579464E-10   3.74297131624536E-18   0.00000000000000E+00   0.00000000000000E+00
      0.00000000000000E+00   0.00000000000000E+00   0.00000000000000E+00   0.00000000000000E+00   0.00000000000000E+00
      2.44697763252790E-18   0.00000000000000E+00   0.00000000000000E+00   0.00000000000000E+00   0.00000000000000E+00
      2.19632420193588E-20   3.03287769936633E-34   2.19632420193592E-20  -9.25372250042479E-18   8.60000000000000E-04
      8.59999960650476E-04   0.00000000000000E+00   0.00000000000000E+00   1.56754043557501E-10  -1.85541440059829E-34
      1.56754043557501E-10   3.06377355165153E-18
      2.08666666666667E-03
      0.00000000000000E+00   7.89441871037617E-11   0.00000000000000E+00   0.00000000000000E+00  -3.16840271351991E-10
     -1.35612339151892E-34  -3.16840271351991E-10   3.74272028517481E-18   0.00000000000000E+00   0.00000000000000E+00
      0.00000000000000E+00   0.00000000000000E+00   0.00000000000000E+00   0.00000000000000E+00   0.00000000000000E+00
      2.43825033228366E-18   0.00000000000000E+00   0.00000000000000E+00   0.00000000000000E+00   0.00000000000000E+00
      1.27813690036468E-20   3.28558629970735E-34   1.27813690036471E-20  -9.25339455900124E-18   1.79453333333333E-03
      1.79453325379654E-03   0.00000000000000E+00   0.00000000000000E+00   3.16840271339210E-10  -1.92946290818843E-34
      3.16840271339210E-10   3.07242394154275E-18
      3.27475555555556E-03
      0.00000000000000E+00   1.19561664540600E-10   0.00000000000000E+00   0.00000000000000E+00  -4.79845982335535E-10
     -1.18553707196722E-34  -4.79845982335535E-10   3.74244590919053E-18   0.00000000000000E+00   0.00000000000000E+00
      0.00000000000000E+00   0.00000000000000E+00   0.00000000000000E+00   0.00000000000000E+00   0.00000000000000E+00
      2.42871145498318E-18   0.00000000000000E+00   0.00000000000000E+00   0.00000000000000E+00   0.00000000000000E+00
      1.72745606225298E-21   3.08298123380210E-34   1.72745606225329E-21  -9.25304282352888E-18   2.81628977777778E-03
      2.81628965731899E-03   0.00000000000000E+00   0.00000000000000E+00   4.79845982333807E-10  -1.89744416183488E-34
      4.79845982333807E-10   3.08188545935517E-18
      4.57373274074074E-03
      0.00000000000000E+00   1.60549120752143E-10   0.00000000000000E+00   0.00000000000000E+00  -6.44326909277986E-10
     -9.74301837334159E-35  -6.44326909277986E-10   3.74214602439522E-18   0.00000000000000E+00   0.00000000000000E+00
      0.00000000000000E+00   0.00000000000000E+00   0.00000000000000E+00   0.00000000000000E+00   0.00000000000000E+00
      2.41828577544847E-18   0.00000000000000E+00   0.00000000000000E+00   0.00000000000000E+00   0.00000000000000E+00
      1.33262540184625E-20   2.78425592875904E-34   1.33262540184627E-20  -9.25266629149027E-18   3.93341015703704E-03
      3.93340999528374E-03   0.00000000000000E+00   0.00000000000000E+00   6.44326909264660E-10  -1.80995409142488E-34
      6.44326909264660E-10   3.09223449164660E-18
      5.99394779654321E-03
      0.00000000000000E+00   2.01514596207866E-10   0.00000000000000E+00   0.00000000000000E+00  -8.08709110307370E-10
     -9.84739016985199E-35  -8.08709110307370E-10   3.74181826715737E-18   0.00000000000000E+00   0.00000000000000E+00
      0.00000000000000E+00   0.00000000000000E+00   0.00000000000000E+00   0.00000000000000E+00   0.00000000000000E+00
      2.40689113311371E-18   0.00000000000000E+00   0.00000000000000E+00   0.00000000000000E+00   0.00000000000000E+00
     -9.36949206193458E-21   2.85150627743922E-34  -9.36949206193430E-21  -9.25226407280698E-18   5.15479510502716E-03
      5.15479490200172E-03   0.00000000000000E+00   0.00000000000000E+00   8.08709110316740E-10  -1.86676726045402E-34
      8.08709110316740E-10   3.10355467253592E-18
      7.54671625755391E-03
      0.00000000000000E+00   2.42033654965479E-10   0.00000000000000E+00   0.00000000000000E+00  -9.71288897120042E-10
     -1.29455274735575E-34  -9.71288897120042E-10   3.74146005576247E-18   0.00000000000000E+00   0.00000000000000E+00
      0.00000000000000E+00   0.00000000000000E+00   0.00000000000000E+00   0.00000000000000E+00   0.00000000000000E+00
      2.39443779674523E-18   0.00000000000000E+00   0.00000000000000E+00   0.00000000000000E+00   0.00000000000000E+00
     -7.97223351467381E-21   2.98840040661114E-34  -7.97223351467351E-21  -9.25183543129775E-18   6.49017598149636E-03
      6.49017573764880E-03   0.00000000000000E+00   0.00000000000000E+00   9.71288897128014E-10  -1.69384765925540E-34
      9.71288897128014E-10   3.11593757879006E-18
      9.24440977492561E-03
      0.00000000000000E+00   2.81655934383956E-10   0.00000000000000E+00   0.00000000000000E+00  -1.13025923552133E-09
     -1.09407274534048E-34  -1.13025923552133E-09   3.74106857033151E-18   0.00000000000000E+00   0.00000000000000E+00
      0.00000000000000E+00   0.00000000000000E+00   0.00000000000000E+00   0.00000000000000E+00   0.00000000000000E+00
      2.38082777041530E-18   0.00000000000000E+00   0.00000000000000E+00   0.00000000000000E+00   0.00000000000000E+00
      9.71013974760010E-21   2.68575335572445E-34   9.71013974760036E-21  -9.25137983285936E-18   7.95019240643603E-03
      7.95019212267006E-03   0.00000000000000E+00   0.00000000000000E+00   1.13025923551162E-09  -1.59168061038396E-34
      1.13025923551162E-09   3.12948349211257E-18
      1.11005546872520E-02
      0.00000000000000E+00   3.19915554005940E-10   0.00000000000000E+00   0.00000000000000E+00  -1.28375163366904E-09
     -9.91058998547891E-35  -1.28375163366904E-09   3.74064073087902E-18   0.00000000000000E+00   0.00000000000000E+00
      0.00000000000000E+00   0.00000000000000E+00   0.00000000000000E+00   0.00000000000000E+00   0.00000000000000E+00
      2.36595403684977E-18   0.00000000000000E+00   0.00000000000000E+00   0.00000000000000E+00   0.00000000000000E+00
     -2.91008240580666E-20   2.52906950247822E-34  -2.91008240580664E-20  -9.25089700333300E-18   9.54647703103672E-03
      9.54647670872545E-03   0.00000000000000E+00   0.00000000000000E+00   1.28375163369814E-09  -1.53801050393033E-34
      1.28375163369814E-09   3.14430223560421E-18
      1.31299397913955E-02
      0.00000000000000E+00   3.56345930170195E-10   0.00000000000000E+00   0.00000000000000E+00  -1.42989598407325E-09
     -1.09937898251679E-34  -1.42989598407325E-09   3.74017317328893E-18   0.00000000000000E+00   0.00000000000000E+00
      0.00000000000000E+00   0.00000000000000E+00   0.00000000000000E+00   0.00000000000000E+00   0.00000000000000E+00
      2.34969973050104E-18   0.00000000000000E+00   0.00000000000000E+00   0.00000000000000E+00   0.00000000000000E+00
     -2.24956110031041E-21   2.57375526699557E-34  -2.24956110031015E-21  -9.25038699469197E-18   1.12917482206002E-02
      1.12917478615868E-02   0.00000000000000E+00   0.00000000000000E+00   1.42989598407550E-09  -1.47437628447878E-34
      1.42989598407550E-09   3.16051409090196E-18
      1.53487341719258E-02
      0.00000000000000E+00   3.90498665600379E-10   0.00000000000000E+00   0.00000000000000E+00  -1.56689613558159E-09
     -1.14395270507870E-34  -1.56689613558159E-09   3.73966222302382E-18   0.00000000000000E+00   0.00000000000000E+00
      0.00000000000000E+00   0.00000000000000E+00   0.00000000000000E+00   0.00000000000000E+00   0.00000000000000E+00
      2.33193723419834E-18   0.00000000000000E+00   0.00000000000000E+00   0.00000000000000E+00   0.00000000000000E+00
     -1.80628680298631E-20   2.45352872185311E-34  -1.80628680298629E-20  -9.24985026105539E-18   1.31999113878562E-02
      1.31999109944360E-02   0.00000000000000E+00   0.00000000000000E+00   1.56689613559966E-09  -1.30957601677441E-34
      1.56689613559966E-09   3.17825080383322E-18
      1.77746160279722E-02
      0.00000000000000E+00   4.21966828383411E-10   0.00000000000000E+00   0.00000000000000E+00  -1.69312378149611E-09
     -8.38983612291387E-35  -1.69312378149611E-09   3.73910386626201E-18   0.00000000000000E+00   0.00000000000000E+00
      0.00000000000000E+00   0.00000000000000E+00   0.00000000000000E+00   0.00000000000000E+00   0.00000000000000E+00
      2.31252718966759E-18   0.00000000000000E+00   0.00000000000000E+00   0.00000000000000E+00   0.00000000000000E+00
      7.68249085052741E-21   2.05624404313374E-34   7.68249085052761E-21  -9.24928774204296E-18   1.52861697840561E-02
      1.52861693589342E-02   0.00000000000000E+00   0.00000000000000E+00   1.69312378148843E-09  -1.21726043084236E-34
      1.69312378148843E-09   3.19765668611333E-18
      2.04269135239163E-02
      0.00000000000000E+00   4.50410103904311E-10   0.00000000000000E+00   0.00000000000000E+00  -1.80721920556927E-09
     -8.87268246068740E-35  -1.80721920556927E-09   3.73849371833087E-18   0.00000000000000E+00   0.00000000000000E+00
      0.00000000000000E+00   0.00000000000000E+00   0.00000000000000E+00   0.00000000000000E+00   0.00000000000000E+00
      2.29131741804096E-18   0.00000000000000E+00   0.00000000000000E+00   0.00000000000000E+00   0.00000000000000E+00
      1.03202660172079E-20   2.08137435556331E-34   1.03202660172081E-20  -9.24870095983918E-18   1.75671456305680E-02
      1.75671451767928E-02   0.00000000000000E+00   0.00000000000000E+00   1.80721920555895E-09  -1.19410610949457E-34
      1.80721920555895E-09   3.21888982346735E-18
      2.33267587861485E-02
      0.00000000000000E+00   4.75583057669352E-10   0.00000000000000E+00   0.00000000000000E+00  -1.90820471124547E-09
     -9.50075883209821E-35  -1.90820471124547E-09   3.73782698903235E-18   0.00000000000000E+00   0.00000000000000E+00
      0.00000000000000E+00   0.00000000000000E+00   0.00000000000000E+00   0.00000000000000E+00   0.00000000000000E+00
      2.26814173636268E-18   0.00000000000000E+00   0.00000000000000E+00   0.00000000000000E+00   0.00000000000000E+00
      1.67058895569773E-20   1.96237629609056E-34   1.67058895569775E-20  -9.24809212384624E-18   2.00610125560877E-02
      2.00610120769552E-02   0.00000000000000E+00   0.00000000000000E+00   1.90820471122876E-09  -1.01230041288074E-34
      1.90820471122876E-09   3.24212339845120E-18
      2.64972562728556E-02
      0.00000000000000E+00   4.97363655632552E-10   0.00000000000000E+00   0.00000000000000E+00  -1.99559903094788E-09
     -1.19079327805100E-34  -1.99559903094788E-09   3.73709844459535E-18   0.00000000000000E+00   0.00000000000000E+00
      0.00000000000000E+00   0.00000000000000E+00   0.00000000000000E+00   0.00000000000000E+00   0.00000000000000E+00
      2.24281866161015E-18   0.00000000000000E+00   0.00000000000000E+00   0.00000000000000E+00   0.00000000000000E+00
     -6.44572979040767E-21   2.15825528338188E-34  -6.44572979040745E-21  -9.24746424496451E-18   2.27876403946559E-02
      2.27876398935853E-02   0.00000000000000E+00   0.00000000000000E+00   1.99559903095433E-09  -9.67462005330882E-35
      1.99559903095433E-09   3.26754713875902E-18
      2.99636668583222E-02
      0.00000000000000E+00   5.15779912129153E-10   0.00000000000000E+00   0.00000000000000E+00  -2.06952393770399E-09
     -1.15917706114011E-34  -2.06952393770399E-09   3.73630236580619E-18   0.00000000000000E+00   0.00000000000000E+00
      0.00000000000000E+00   0.00000000000000E+00   0.00000000000000E+00   0.00000000000000E+00   0.00000000000000E+00
      2.21514998761658E-18   0.00000000000000E+00   0.00000000000000E+00   0.00000000000000E+00   0.00000000000000E+00
      1.73633779339756E-21   2.04849721691653E-34   1.73633779339776E-21  -9.24682125403261E-18   2.57687534981571E-02
      2.57687529785407E-02   0.00000000000000E+00   0.00000000000000E+00   2.06952393770226E-09  -8.89320155776416E-35
      2.06952393770226E-09   3.29536890060982E-18
      3.37536090984323E-02
      0.00000000000000E+00   5.31032311260793E-10   0.00000000000000E+00   0.00000000000000E+00  -2.13079350799055E-09
     -9.02525017467629E-35  -2.13079350799055E-09   3.73543250211977E-18   0.00000000000000E+00   0.00000000000000E+00
      0.00000000000000E+00   0.00000000000000E+00   0.00000000000000E+00   0.00000000000000E+00   0.00000000000000E+00
      2.18491922197035E-18   0.00000000000000E+00   0.00000000000000E+00   0.00000000000000E+00   0.00000000000000E+00
     -2.04274070998680E-20   1.78150673201769E-34  -2.04274070998678E-20  -9.24616812544362E-18   2.90281038246517E-02
      2.90281032896809E-02   0.00000000000000E+00   0.00000000000000E+00   2.13079350801098E-09  -8.78981714550062E-35
      2.13079350801098E-09   3.32581640135350E-18
      3.78972792809526E-02
      0.00000000000000E+00   5.43500594954088E-10   0.00000000000000E+00   0.00000000000000E+00  -2.18094093410639E-09
     -1.29726601359070E-34  -2.18094093410639E-09   3.73448202136256E-18   0.00000000000000E+00   0.00000000000000E+00
      0.00000000000000E+00   0.00000000000000E+00   0.00000000000000E+00   0.00000000000000E+00   0.00000000000000E+00
      2.15188987226969E-18   0.00000000000000E+00   0.00000000000000E+00   0.00000000000000E+00   0.00000000000000E+00
      1.34280075514650E-20   2.02708387797279E-34   1.34280075514652E-20  -9.24551100453388E-18   3.25916601816192E-02
      3.25916596341042E-02   0.00000000000000E+00   0.00000000000000E+00   2.18094093409296E-09  -7.29817864382085E-35
      2.18094093409296E-09   3.35913911090161E-18
      4.24276920138415E-02
      0.00000000000000E+00   5.53732180944845E-10   0.00000000000000E+00   0.00000000000000E+00  -2.22217076317411E-09
     -1.02132598927168E-34  -2.22217076317411E-09   3.73344345469612E-18   0.00000000000000E+00   0.00000000000000E+00
      0.00000000000000E+00   0.00000000000000E+00   0.00000000000000E+00   0.00000000000000E+00   0.00000000000000E+00
      2.11580355736829E-18   0.00000000000000E+00   0.00000000000000E+00   0.00000000000000E+00   0.00000000000000E+00
      4.92297454843165E-20   1.67580009664380E-34   4.92297454843166E-20  -9.24485732721513E-18   3.64878151319037E-02
      3.64878145741051E-02   0.00000000000000E+00   0.00000000000000E+00   2.22217076312488E-09  -6.54474107372122E-35
      2.22217076312488E-09   3.39561031515073E-18
      4.73809432684667E-02
      0.00000000000000E+00   5.62400888992784E-10   0.00000000000000E+00   0.00000000000000E+00  -2.25719209736953E-09
     -1.02678689958737E-34  -2.25719209736953E-09   3.73230863678459E-18   0.00000000000000E+00   0.00000000000000E+00
      0.00000000000000E+00   0.00000000000000E+00   0.00000000000000E+00   0.00000000000000E+00   0.00000000000000E+00
      2.07637793695234E-18   0.00000000000000E+00   0.00000000000000E+00   0.00000000000000E+00   0.00000000000000E+00
      1.00064881307407E-19   1.54958397636961E-34   1.00064881307407E-19  -9.24421594065522E-18   4.07476112108814E-02
      4.07476106443836E-02   0.00000000000000E+00   0.00000000000000E+00   2.25719209726947E-09  -5.22797076782241E-35
      2.25719209726947E-09   3.43552936691832E-18
      5.27964979735236E-02
      0.00000000000000E+00   5.70240023820244E-10   0.00000000000000E+00   0.00000000000000E+00  -2.28895034504309E-09
     -1.02924681323626E-34  -2.28895034504309E-09   3.73106864087341E-18   0.00000000000000E+00   0.00000000000000E+00
      0.00000000000000E+00   0.00000000000000E+00   0.00000000000000E+00   0.00000000000000E+00   0.00000000000000E+00
      2.03330444264534E-18   0.00000000000000E+00   0.00000000000000E+00   0.00000000000000E+00   0.00000000000000E+00
     -1.51354392889911E-18   1.48222273153119E-34  -1.51354392889911E-18  -9.24359721927789E-18   4.54049882572303E-02
      4.54049876828828E-02   0.00000000000000E+00   0.00000000000000E+00   2.28895034655663E-09  -4.52975918294929E-35
      2.28895034655663E-09   3.47922413575917E-18
      5.87175044510525E-02
      0.00000000000000E+00   5.77958608767599E-10   0.00000000000000E+00   0.00000000000000E+00  -2.32028944657256E-09
     -1.01242918933367E-34  -2.32028944657256E-09   3.72971370923428E-18   0.00000000000000E+00   0.00000000000000E+00
      0.00000000000000E+00   0.00000000000000E+00   0.00000000000000E+00   0.00000000000000E+00   0.00000000000000E+00
      1.98624579502627E-18   0.00000000000000E+00   0.00000000000000E+00   0.00000000000000E+00   0.00000000000000E+00
      2.71304858810965E-20   1.40336633369326E-34   2.71304858810966E-20  -9.24301317702451E-18   5.04970538279052E-02
      5.04970532458456E-02   0.00000000000000E+00   0.00000000000000E+00   2.32028944654542E-09  -3.90937144359583E-35
      2.32028944654542E-09   3.52705367276397E-18
      6.51516648233006E-02
      0.00000000000000E+00   5.86079844987124E-10   0.00000000000000E+00   0.00000000000000E+00  -2.35330716211106E-09
     -1.07935776398805E-34  -2.35330716211106E-09   3.72824220471066E-18   0.00000000000000E+00   0.00000000000000E+00
      0.00000000000000E+00   0.00000000000000E+00   0.00000000000000E+00   0.00000000000000E+00   0.00000000000000E+00
      1.93514671604024E-18   0.00000000000000E+00   0.00000000000000E+00   0.00000000000000E+00   0.00000000000000E+00
     -5.00050591554344E-21   1.41193414143246E-34  -5.00050591554330E-21  -9.24248058580277E-18   5.60304317480385E-02
      5.60304311578773E-02   0.00000000000000E+00   0.00000000000000E+00   2.35330716211606E-09  -3.32576377444420E-35
      2.35330716211606E-09   3.57909166505185E-18
      7.21434524278101E-02
      0.00000000000000E+00   5.94946895971047E-10   0.00000000000000E+00   0.00000000000000E+00  -2.38937335875615E-09
     -1.01107898598071E-34  -2.38937335875615E-09   3.72664408772347E-18   0.00000000000000E+00   0.00000000000000E+00
      0.00000000000000E+00   0.00000000000000E+00   0.00000000000000E+00   0.00000000000000E+00   0.00000000000000E+00
      1.87965994265255E-18   0.00000000000000E+00   0.00000000000000E+00   0.00000000000000E+00   0.00000000000000E+00
      2.37234083715979E-20   1.24842245036037E-34   2.37234083715980E-20  -9.24201373286132E-18   6.20433690879167E-02
      6.20433684889175E-02   0.00000000000000E+00   0.00000000000000E+00   2.38937335873243E-09  -2.37343464379666E-35
      2.38937335873243E-09   3.63570970248531E-18
      7.97411949580438E-02
      0.00000000000000E+00   6.04720558188703E-10   0.00000000000000E+00   0.00000000000000E+00  -2.42913190523127E-09
     -1.11613151087075E-34  -2.42913190523127E-09   3.72490845589336E-18   0.00000000000000E+00   0.00000000000000E+00
      0.00000000000000E+00   0.00000000000000E+00   0.00000000000000E+00   0.00000000000000E+00   0.00000000000000E+00
      1.81940819140910E-18   0.00000000000000E+00   0.00000000000000E+00   0.00000000000000E+00   0.00000000000000E+00
     -3.46287292345910E-20   1.31746696875462E-34  -3.46287292345909E-20  -9.24162856205457E-18   6.85774276639177E-02
      6.85774270551852E-02   0.00000000000000E+00   0.00000000000000E+00   2.42913190526590E-09  -2.01335457883871E-35
      2.42913190526590E-09   3.69731191475207E-18
      8.79974085075645E-02
      0.00000000000000E+00   6.15492925428673E-10   0.00000000000000E+00   0.00000000000000E+00  -2.47295947479444E-09
     -1.06263141330436E-34  -2.47295947479444E-09   3.72302346880584E-18   0.00000000000000E+00   0.00000000000000E+00
      0.00000000000000E+00   0.00000000000000E+00   0.00000000000000E+00   0.00000000000000E+00   0.00000000000000E+00
      1.75398155377418E-18   0.00000000000000E+00   0.00000000000000E+00   0.00000000000000E+00   0.00000000000000E+00
     -2.78748683307062E-20   1.23434274862130E-34  -2.78748683307061E-20  -9.24134273849965E-18   7.56777713165054E-02
      7.56777706970557E-02   0.00000000000000E+00   0.00000000000000E+00   2.47295947482231E-09  -1.71711335316940E-35
      2.47295947482231E-09   3.76433771591962E-18
      9.69691605647102E-02
      0.00000000000000E+00   6.27324653533110E-10   0.00000000000000E+00   0.00000000000000E+00  -2.52110622520353E-09
     -1.13545992597531E-34  -2.52110622520353E-09   3.72097627321570E-18   0.00000000000000E+00   0.00000000000000E+00
      0.00000000000000E+00   0.00000000000000E+00   0.00000000000000E+00   0.00000000000000E+00   0.00000000000000E+00
      1.68293475686843E-18   0.00000000000000E+00   0.00000000000000E+00   0.00000000000000E+00   0.00000000000000E+00
     -1.24317185995479E-20   1.26287928689974E-34  -1.24317185995478E-20  -9.24117580199478E-18   8.33934780856508E-02
      8.33934774544315E-02   0.00000000000000E+00   0.00000000000000E+00   2.52110622521596E-09  -1.27419360924422E-35
      2.52110622521596E-09   3.83726477191065E-18
      1.06718464466809E-01
      0.00000000000000E+00   6.40271575086801E-10   0.00000000000000E+00   0.00000000000000E+00  -2.57380508872573E-09
     -1.00527721365031E-34  -2.57380508872573E-09   3.71875291465928E-18   0.00000000000000E+00   0.00000000000000E+00
      0.00000000000000E+00   0.00000000000000E+00   0.00000000000000E+00   0.00000000000000E+00   0.00000000000000E+00
      1.60578412393958E-18   0.00000000000000E+00   0.00000000000000E+00   0.00000000000000E+00   0.00000000000000E+00
     -2.80838861437666E-20   1.10563030486822E-34  -2.80838861437665E-20  -9.24114922096983E-18   9.17778794414554E-02
      9.17778787973515E-02   0.00000000000000E+00   0.00000000000000E+00   2.57380508875381E-09  -1.00353091217907E-35
      2.57380508875381E-09   3.91661218237093E-18
      1.16718464466809E-01
      0.00000000000000E+00   6.53647377755373E-10   0.00000000000000E+00   0.00000000000000E+00  -2.62826915447794E-09
     -9.53325616558391E-35  -2.62826915447794E-09   3.71647363785106E-18   0.00000000000000E+00   0.00000000000000E+00
      0.00000000000000E+00   0.00000000000000E+00   0.00000000000000E+00   0.00000000000000E+00   0.00000000000000E+00
      1.52670193286828E-18   0.00000000000000E+00   0.00000000000000E+00   0.00000000000000E+00   0.00000000000000E+00
     -3.95066588829010E-20   1.02216618517215E-34  -3.95066588829009E-20  -9.24127423228373E-18   1.00377879441455E-01
      1.00377878784043E-01   0.00000000000000E+00   0.00000000000000E+00   2.62826915451745E-09  -6.88405686137558E-36
      2.62826915451745E-09   3.99809866156437E-18
      1.26718464466809E-01
      0.00000000000000E+00   6.67157067512207E-10   0.00000000000000E+00   0.00000000000000E+00  -2.68329830453976E-09
     -1.34221151328160E-34  -2.68329830453976E-09   3.71419552435732E-18   0.00000000000000E+00   0.00000000000000E+00
      0.00000000000000E+00   0.00000000000000E+00   0.00000000000000E+00   0.00000000000000E+00   0.00000000000000E+00
      1.44766754256315E-18   0.00000000000000E+00   0.00000000000000E+00   0.00000000000000E+00   0.00000000000000E+00
     -3.01336718496729E-20   1.39652184961694E-34  -3.01336718496728E-20  -9.24153909664221E-18   1.08977879441455E-01
      1.08977878770616E-01   0.00000000000000E+00   0.00000000000000E+00   2.68329830456990E-09  -5.43103363353372E-36
      2.68329830456990E-09   4.07967602972177E-18
      1.36718464466809E-01
      0.00000000000000E+00   6.80832990045276E-10   0.00000000000000E+00   0.00000000000000E+00  -2.73902244269080E-09
     -1.14022822808237E-34  -2.73902244269080E-09   3.71191848279105E-18   0.00000000000000E+00   0.00000000000000E+00
      0.00000000000000E+00   0.00000000000000E+00   0.00000000000000E+00   0.00000000000000E+00   0.00000000000000E+00
      1.36867644552009E-18   0.00000000000000E+00   0.00000000000000E+00   0.00000000000000E+00   0.00000000000000E+00
      5.24671430863272E-22   1.18040340438983E-34   5.24671430863391E-22  -9.24193091392165E-18   1.17577879441455E-01
      1.17577878757042E-01   0.00000000000000E+00   0.00000000000000E+00   2.73902244269027E-09  -4.01751763074563E-36
      2.73902244269027E-09   4.16133598561052E-18
      1.46718464466809E-01
      0.00000000000000E+00   6.94691588379863E-10   0.00000000000000E+00   0.00000000000000E+00  -2.79550694383057E-09
     -1.26713986585418E-34  -2.79550694383057E-09   3.70964243777146E-18   0.00000000000000E+00   0.00000000000000E+00
      0.00000000000000E+00   0.00000000000000E+00   0.00000000000000E+00   0.00000000000000E+00   0.00000000000000E+00
      1.28972477311605E-18   0.00000000000000E+00   0.00000000000000E+00   0.00000000000000E+00   0.00000000000000E+00
     -3.42865023376073E-20   1.29565201581220E-34  -3.42865023376071E-20  -9.24243820832767E-18   1.26177879441455E-01
      1.26177878743290E-01   0.00000000000000E+00   0.00000000000000E+00   2.79550694386486E-09  -2.85121499580197E-36
      2.79550694386486E-09   4.24307099744013E-18
      1.56718464466809E-01
      0.00000000000000E+00   7.08736324442749E-10   0.00000000000000E+00   0.00000000000000E+00  -2.85276520453752E-09
     -1.08850139785396E-34  -2.85276520453752E-09   3.70736732410285E-18   0.00000000000000E+00   0.00000000000000E+00
      0.00000000000000E+00   0.00000000000000E+00   0.00000000000000E+00   0.00000000000000E+00   0.00000000000000E+00
      1.21080918927139E-18   0.00000000000000E+00   0.00000000000000E+00   0.00000000000000E+00   0.00000000000000E+00
      1.09800738451326E-20   1.11189655543346E-34   1.09800738451328E-20  -9.24305073314765E-18   1.34777879441455E-01
      1.34777878729346E-01   0.00000000000000E+00   0.00000000000000E+00   2.85276520452654E-09  -2.33951575794976E-36
      2.85276520452654E-09   4.32487421977339E-18
      1.66718464466809E-01
      0.00000000000000E+00   7.22964238917618E-10   0.00000000000000E+00   0.00000000000000E+00  -2.91078491728817E-09
     -1.17516929406484E-34  -2.91078491728817E-09   3.70509308336491E-18   0.00000000000000E+00   0.00000000000000E+00
      0.00000000000000E+00   0.00000000000000E+00   0.00000000000000E+00   0.00000000000000E+00   0.00000000000000E+00
      1.13192678410004E-18   0.00000000000000E+00   0.00000000000000E+00   0.00000000000000E+00   0.00000000000000E+00
     -4.49174090161882E-21   1.19237527300633E-34  -4.49174090161870E-21  -9.24375928815949E-18   1.43377879441455E-01
      1.43377878715211E-01   0.00000000000000E+00   0.00000000000000E+00   2.91078491729266E-09  -1.72059789414823E-36
      2.91078491729266E-09   4.40673942069456E-18
      1.76718464466809E-01
      0.00000000000000E+00   7.37371014538354E-10   0.00000000000000E+00   0.00000000000000E+00  -2.96954814222349E-09
     -1.06068809800014E-34  -2.96954814222349E-09   3.70281966256791E-18   0.00000000000000E+00   0.00000000000000E+00
      0.00000000000000E+00   0.00000000000000E+00   0.00000000000000E+00   0.00000000000000E+00   0.00000000000000E+00
      1.05307498302230E-18   0.00000000000000E+00   0.00000000000000E+00   0.00000000000000E+00   0.00000000000000E+00
     -1.87239013860482E-20   1.07355139250800E-34  -1.87239013860481E-20  -9.24455556648636E-18   1.51977879441455E-01
      1.51977878700890E-01   0.00000000000000E+00   0.00000000000000E+00   2.96954814224221E-09  -1.28632945078549E-36
      2.96954814224221E-09   4.48866092089614E-18
      1.86718464466809E-01
      0.00000000000000E+00   7.51953779325660E-10   0.00000000000000E+00   0.00000000000000E+00  -3.02904341102285E-09