DF-ISE text

Info {
  version   = 1.0
  type      = xyplot
  datasets  = [
    "time"
    "source OuterVoltage" "source InnerVoltage" "source QuasiFermiPotential" "source DisplacementCurrent" "source eCurrent"
    "source hCurrent" "source TotalCurrent" "source Charge" "gate OuterVoltage" "gate InnerVoltage"
    "gate QuasiFermiPotential" "gate DisplacementCurrent" "gate eCurrent" "gate hCurrent" "gate TotalCurrent"
    "gate Charge" "substrate OuterVoltage" "substrate InnerVoltage" "substrate QuasiFermiPotential" "substrate DisplacementCurrent"
    "substrate eCurrent" "substrate hCurrent" "substrate TotalCurrent" "substrate Charge" "drain OuterVoltage"
    "drain InnerVoltage" "drain QuasiFermiPotential" "drain DisplacementCurrent" "drain eCurrent" "drain hCurrent"
    "drain TotalCurrent" "drain Charge" ]
  functions = [
    Time
    OuterVoltage InnerVoltage QuasiFermiPotential DisplacementCurrent eCurrent
    hCurrent TotalCurrent Charge OuterVoltage InnerVoltage
    QuasiFermiPotential DisplacementCurrent eCurrent hCurrent TotalCurrent
    Charge OuterVoltage InnerVoltage QuasiFermiPotential DisplacementCurrent
    eCurrent hCurrent TotalCurrent Charge OuterVoltage
    InnerVoltage QuasiFermiPotential DisplacementCurrent eCurrent hCurrent
    TotalCurrent Charge ]
}

Data {
      0.00000000000000E+00
      0.00000000000000E+00   0.00000000000000E+00   0.00000000000000E+00   0.00000000000000E+00  -3.34445456718486E-21
     -1.24640097925263E-34  -3.34445456718499E-21   4.77569657903560E-18   0.00000000000000E+00   0.00000000000000E+00
      0.00000000000000E+00   0.00000000000000E+00   0.00000000000000E+00   0.00000000000000E+00   0.00000000000000E+00
      1.48083571204725E-18   0.00000000000000E+00   0.00000000000000E+00   0.00000000000000E+00   0.00000000000000E+00
      1.15478329470294E-20   3.05036007490192E-34   1.15478329470297E-20  -1.06763821539038E-17   0.00000000000000E+00
      0.00000000000000E+00   0.00000000000000E+00   0.00000000000000E+00  -8.20337837984451E-21  -1.80395909564929E-34
     -8.20337837984469E-21   4.41984986282093E-18
      0.00000000000000E+00
      0.00000000000000E+00   0.00000000000000E+00   0.00000000000000E+00   0.00000000000000E+00   3.20271659590997E-20
     -1.51926006142020E-34   3.20271659590995E-20   4.77408466660228E-18   0.00000000000000E+00   0.00000000000000E+00
      0.00000000000000E+00   0.00000000000000E+00   0.00000000000000E+00   0.00000000000000E+00   0.00000000000000E+00
      1.47598658669533E-18   0.00000000000000E+00   0.00000000000000E+00   0.00000000000000E+00   0.00000000000000E+00
      2.17191478530996E-19   3.30595650772194E-34   2.17191478530996E-19  -1.06685836126330E-17   0.00000000000000E+00
      0.00000000000000E+00   0.00000000000000E+00   0.00000000000000E+00  -2.49218644490095E-19  -1.78669644630174E-34
     -2.49218644490096E-19   4.41851235933538E-18
      1.00000000000000E-03
      0.00000000000000E+00   9.02562201242147E-11   0.00000000000000E+00   0.00000000000000E+00  -4.36135320612272E-10
     -1.41797501824037E-34  -4.36135320612272E-10   4.77361199472872E-18   0.00000000000000E+00   0.00000000000000E+00
      0.00000000000000E+00   0.00000000000000E+00   0.00000000000000E+00   0.00000000000000E+00   0.00000000000000E+00
      1.46407632862227E-18   0.00000000000000E+00   0.00000000000000E+00   0.00000000000000E+00   0.00000000000000E+00
     -1.52448647505744E-20   3.18148400179754E-34  -1.52448647505741E-20  -1.06677546398109E-17   8.60000000000000E-04
      8.59999909384523E-04   0.00000000000000E+00   0.00000000000000E+00   4.36135320627517E-10  -1.76350898355717E-34
      4.36135320627517E-10   4.43006631645996E-18
      2.08666666666667E-03
      0.00000000000000E+00   1.82043176038078E-10   0.00000000000000E+00   0.00000000000000E+00  -8.79630800957993E-10
     -1.46982065020472E-34  -8.79630800957993E-10   4.77309853688057E-18   0.00000000000000E+00   0.00000000000000E+00
      0.00000000000000E+00   0.00000000000000E+00   0.00000000000000E+00   0.00000000000000E+00   0.00000000000000E+00
      1.45113767697771E-18   0.00000000000000E+00   0.00000000000000E+00   0.00000000000000E+00   0.00000000000000E+00
      5.27824446396312E-20   3.22415554727571E-34   5.27824446396316E-20  -1.06668632879967E-17   1.79453333333333E-03
      1.79453315056777E-03   0.00000000000000E+00   0.00000000000000E+00   8.79630800905211E-10  -1.75433489707099E-34
      8.79630800905211E-10   4.44262707413848E-18
      3.27475555555556E-03
      0.00000000000000E+00   2.75028315643020E-10   0.00000000000000E+00   0.00000000000000E+00  -1.32886568859253E-09
     -1.44570044880399E-34  -1.32886568859253E-09   4.77253736806435E-18   0.00000000000000E+00   0.00000000000000E+00
      0.00000000000000E+00   0.00000000000000E+00   0.00000000000000E+00   0.00000000000000E+00   0.00000000000000E+00
      1.43699591824527E-18   0.00000000000000E+00   0.00000000000000E+00   0.00000000000000E+00   0.00000000000000E+00
     -2.66121750524129E-19   3.10623558694668E-34  -2.66121750524128E-19  -1.06658999008696E-17   2.81628977777778E-03
      2.81628950166133E-03   0.00000000000000E+00   0.00000000000000E+00   1.32886568885865E-09  -1.66053513814269E-34
      1.32886568885865E-09   4.45636661455998E-18
      4.57373274074074E-03
      0.00000000000000E+00   3.68308155518232E-10   0.00000000000000E+00   0.00000000000000E+00  -1.77946757345300E-09
     -1.47712396907441E-34  -1.77946757345300E-09   4.77192407346565E-18   0.00000000000000E+00   0.00000000000000E+00
      0.00000000000000E+00   0.00000000000000E+00   0.00000000000000E+00   0.00000000000000E+00   0.00000000000000E+00
      1.42153956079342E-18   0.00000000000000E+00   0.00000000000000E+00   0.00000000000000E+00   0.00000000000000E+00
      1.64209215415567E-19   3.09623176499129E-34   1.64209215415567E-19  -1.06648597758312E-17   3.93341015703704E-03
      3.93340978727620E-03   0.00000000000000E+00   0.00000000000000E+00   1.77946757328879E-09  -1.61910779591689E-34
      1.77946757328879E-09   4.47139614157213E-18
      5.99394779654321E-03
      0.00000000000000E+00   4.60923401819336E-10   0.00000000000000E+00   0.00000000000000E+00  -2.22680072710087E-09
     -1.22643802286854E-34  -2.22680072710087E-09   4.77125383209299E-18   0.00000000000000E+00   0.00000000000000E+00
      0.00000000000000E+00   0.00000000000000E+00   0.00000000000000E+00   0.00000000000000E+00   0.00000000000000E+00
      1.40464683993842E-18   0.00000000000000E+00   0.00000000000000E+00   0.00000000000000E+00   0.00000000000000E+00
      1.27467673227663E-20   2.79214016428223E-34   1.27467673227666E-20  -1.06637381203054E-17   5.15479510502716E-03
      5.15479464229156E-03   0.00000000000000E+00   0.00000000000000E+00   2.22680072708812E-09  -1.56570214141369E-34
      2.22680072708812E-09   4.48783744827398E-18
      7.54671625755391E-03
      0.00000000000000E+00   5.51861744380668E-10   0.00000000000000E+00   0.00000000000000E+00  -2.66597947838265E-09
     -1.56982075262798E-34  -2.66597947838265E-09   4.77052137970941E-18   0.00000000000000E+00   0.00000000000000E+00
      0.00000000000000E+00   0.00000000000000E+00   0.00000000000000E+00   0.00000000000000E+00   0.00000000000000E+00
      1.38618477847445E-18   0.00000000000000E+00   0.00000000000000E+00   0.00000000000000E+00   0.00000000000000E+00
      3.50829805770456E-19   3.17937029921273E-34   3.50829805770456E-19  -1.06625300982526E-17   6.49017598149636E-03
      6.49017542747210E-03   0.00000000000000E+00   0.00000000000000E+00   2.66597947803182E-09  -1.60954954658474E-34
      2.66597947803182E-09   4.50582394006879E-18
      9.24440977492561E-03
      0.00000000000000E+00   6.40077472728875E-10   0.00000000000000E+00   0.00000000000000E+00  -3.09196430113997E-09
     -1.65360246093316E-34  -3.09196430113997E-09   4.76972096827948E-18   0.00000000000000E+00   0.00000000000000E+00
      0.00000000000000E+00   0.00000000000000E+00   0.00000000000000E+00   0.00000000000000E+00   0.00000000000000E+00
      1.36600816099853E-18   0.00000000000000E+00   0.00000000000000E+00   0.00000000000000E+00   0.00000000000000E+00
     -2.75056808166179E-20   2.93935892062617E-34  -2.75056808166176E-20  -1.06612308876581E-17   7.95019240643603E-03
      7.95019176385896E-03   0.00000000000000E+00   0.00000000000000E+00   3.09196430116748E-09  -1.28575645969302E-34
      3.09196430116748E-09   4.52550175838010E-18
      1.11005546872520E-02
      0.00000000000000E+00   7.24521739345127E-10   0.00000000000000E+00   0.00000000000000E+00  -3.49970881349515E-09
     -1.82348026720801E-34  -3.49970881349515E-09   4.76884632161878E-18   0.00000000000000E+00   0.00000000000000E+00
      0.00000000000000E+00   0.00000000000000E+00   0.00000000000000E+00   0.00000000000000E+00   0.00000000000000E+00
      1.34395841432706E-18   0.00000000000000E+00   0.00000000000000E+00   0.00000000000000E+00   0.00000000000000E+00
     -4.44408074495178E-20   3.04897125990742E-34  -4.44408074495175E-20  -1.06598357506868E-17   9.54647703103672E-03
      9.54647630369563E-03   0.00000000000000E+00   0.00000000000000E+00   3.49970881353959E-09  -1.22549099269941E-34
      3.49970881353959E-09   4.54703101474098E-18
      1.31299397913955E-02
      0.00000000000000E+00   8.04181499305864E-10   0.00000000000000E+00   0.00000000000000E+00  -3.88434906641625E-09
     -1.76391633599934E-34  -3.88434906641625E-09   4.76789058688977E-18   0.00000000000000E+00   0.00000000000000E+00
      0.00000000000000E+00   0.00000000000000E+00   0.00000000000000E+00   0.00000000000000E+00   0.00000000000000E+00
      1.31986238493288E-18   0.00000000000000E+00   0.00000000000000E+00   0.00000000000000E+00   0.00000000000000E+00
      4.57832943493215E-20   3.14500624635909E-34   4.57832943493218E-20  -1.06583401179635E-17   1.12917482206002E-02
      1.12917474133008E-02   0.00000000000000E+00   0.00000000000000E+00   3.88434906637047E-09  -1.38108991035974E-34
      3.88434906637047E-09   4.57058714614090E-18
      1.53487341719258E-02
      0.00000000000000E+00   8.78127494523611E-10   0.00000000000000E+00   0.00000000000000E+00  -4.24143653237389E-09
     -1.44121913856064E-34  -4.24143653237389E-09   4.76684628145622E-18   0.00000000000000E+00   0.00000000000000E+00
      0.00000000000000E+00   0.00000000000000E+00   0.00000000000000E+00   0.00000000000000E+00   0.00000000000000E+00
      1.29353100253264E-18   0.00000000000000E+00   0.00000000000000E+00   0.00000000000000E+00   0.00000000000000E+00
      2.64256049789602E-19   2.52899670799236E-34   2.64256049789602E-19  -1.06567396873254E-17   1.31999113878562E-02
      1.31999105063374E-02   0.00000000000000E+00   0.00000000000000E+00   4.24143653210963E-09  -1.08777756943172E-34
      4.24143653210963E-09   4.59636240333652E-18
      1.77746160279722E-02
      0.00000000000000E+00   9.45568988997299E-10   0.00000000000000E+00   0.00000000000000E+00  -4.56720255632812E-09
     -1.06551159447468E-34  -4.56720255632812E-09   4.76570523470931E-18   0.00000000000000E+00   0.00000000000000E+00
      0.00000000000000E+00   0.00000000000000E+00   0.00000000000000E+00   0.00000000000000E+00   0.00000000000000E+00
      1.26475782010743E-18   0.00000000000000E+00   0.00000000000000E+00   0.00000000000000E+00   0.00000000000000E+00
     -2.93188841577478E-19   2.06416051698549E-34  -2.93188841577478E-19  -1.06550305405011E-17   1.52861697840561E-02
      1.52861688348504E-02   0.00000000000000E+00   0.00000000000000E+00   4.56720255662131E-09  -9.98648922510808E-35
      4.56720255662131E-09   4.62456748568431E-18
      2.04269135239163E-02
      0.00000000000000E+00   1.00591396166224E-09   0.00000000000000E+00   0.00000000000000E+00  -4.85884901256103E-09
     -1.11493894555735E-34  -4.85884901256103E-09   4.76445852419883E-18   0.00000000000000E+00   0.00000000000000E+00
      0.00000000000000E+00   0.00000000000000E+00   0.00000000000000E+00   0.00000000000000E+00   0.00000000000000E+00
      1.23331741572694E-18   0.00000000000000E+00   0.00000000000000E+00   0.00000000000000E+00   0.00000000000000E+00
     -3.58075829849060E-19   2.10793984902949E-34  -3.58075829849060E-19  -1.06532092752995E-17   1.75671456305680E-02
      1.75671446208024E-02   0.00000000000000E+00   0.00000000000000E+00   4.85884901291910E-09  -9.93000903472142E-35
      4.85884901291910E-09   4.65543333537370E-18
      2.33267587861485E-02
      0.00000000000000E+00   1.05883198633060E-09   0.00000000000000E+00   0.00000000000000E+00  -5.11485212263049E-09
     -1.62299490928633E-34  -5.11485212263049E-09   4.76309640544240E-18   0.00000000000000E+00   0.00000000000000E+00
      0.00000000000000E+00   0.00000000000000E+00   0.00000000000000E+00   0.00000000000000E+00   0.00000000000000E+00
      1.19896364117100E-18   0.00000000000000E+00   0.00000000000000E+00   0.00000000000000E+00   0.00000000000000E+00
     -1.74871080440473E-19   2.49720985134977E-34  -1.74871080440473E-19  -1.06512731527957E-17   2.00610125560877E-02
      2.00610114932215E-02   0.00000000000000E+00   0.00000000000000E+00   5.11485212280536E-09  -8.74214942063447E-35
      5.11485212280536E-09   4.68921310618234E-18
      2.64972562728556E-02
      0.00000000000000E+00   1.10431426528771E-09   0.00000000000000E+00   0.00000000000000E+00  -5.33525064692834E-09
     -1.30848966652339E-34  -5.33525064692834E-09   4.76160823481438E-18   0.00000000000000E+00   0.00000000000000E+00
      0.00000000000000E+00   0.00000000000000E+00   0.00000000000000E+00   0.00000000000000E+00   0.00000000000000E+00
      1.16142770319404E-18   0.00000000000000E+00   0.00000000000000E+00   0.00000000000000E+00   0.00000000000000E+00
     -8.48918837263289E-19   2.06025113627454E-34  -8.48918837263289E-19  -1.06492202619752E-17   2.27876403946559E-02
      2.27876392861579E-02   0.00000000000000E+00   0.00000000000000E+00   5.33525064777726E-09  -7.51761469751158E-35
      5.33525064777726E-09   4.72618432396683E-18
      2.99636668583222E-02
      0.00000000000000E+00   1.14272499240801E-09   0.00000000000000E+00   0.00000000000000E+00  -5.52189217840612E-09
     -1.34825178551447E-34  -5.52189217840612E-09   4.75998238450791E-18   0.00000000000000E+00   0.00000000000000E+00
      0.00000000000000E+00   0.00000000000000E+00   0.00000000000000E+00   0.00000000000000E+00   0.00000000000000E+00
      1.12041605188551E-18   0.00000000000000E+00   0.00000000000000E+00   0.00000000000000E+00   0.00000000000000E+00
     -5.91820538690622E-19   2.01000034866341E-34  -5.91820538690621E-19  -1.06470496900962E-17   2.57687534981571E-02
      2.57687523511323E-02   0.00000000000000E+00   0.00000000000000E+00   5.52189217899793E-09  -6.61748563148945E-35
      5.52189217899793E-09   4.76665125370285E-18
      3.37536090984323E-02
      0.00000000000000E+00   1.17482721208301E-09   0.00000000000000E+00   0.00000000000000E+00  -5.67855537714300E-09
     -1.61413735851728E-34  -5.67855537714300E-09   4.75820614926412E-18   0.00000000000000E+00   0.00000000000000E+00
      0.00000000000000E+00   0.00000000000000E+00   0.00000000000000E+00   0.00000000000000E+00   0.00000000000000E+00
      1.07560807150686E-18   0.00000000000000E+00   0.00000000000000E+00   0.00000000000000E+00   0.00000000000000E+00
     -6.55710862504588E-19   2.18813430874256E-34  -6.55710862504588E-19  -1.06447617172745E-17   2.90281038246517E-02
      2.90281026454445E-02   0.00000000000000E+00   0.00000000000000E+00   5.67855537779871E-09  -5.73996950225277E-35
      5.67855537779871E-09   4.81094749650354E-18
      3.78972792809526E-02
      0.00000000000000E+00   1.20178966376069E-09   0.00000000000000E+00   0.00000000000000E+00  -5.81097089055909E-09
     -1.64885780623129E-34  -5.81097089055909E-09   4.75626564318827E-18   0.00000000000000E+00   0.00000000000000E+00
      0.00000000000000E+00   0.00000000000000E+00   0.00000000000000E+00   0.00000000000000E+00   0.00000000000000E+00
      1.02665351114396E-18   0.00000000000000E+00   0.00000000000000E+00   0.00000000000000E+00   0.00000000000000E+00
      1.95713045162132E-19   2.12755743005934E-34   1.95713045162133E-19  -1.06423579823856E-17   3.25916601816192E-02
      3.25916589754044E-02   0.00000000000000E+00   0.00000000000000E+00   5.81097089036338E-09  -4.78699623828047E-35
      5.81097089036338E-09   4.85943882805336E-18
      4.24276920138415E-02
      0.00000000000000E+00   1.22512712499695E-09   0.00000000000000E+00   0.00000000000000E+00  -5.92653585041362E-09
     -1.34931794771069E-34  -5.92653585041362E-09   4.75414568783866E-18   0.00000000000000E+00   0.00000000000000E+00
      0.00000000000000E+00   0.00000000000000E+00   0.00000000000000E+00   0.00000000000000E+00   0.00000000000000E+00
      9.73169683340320E-19   0.00000000000000E+00   0.00000000000000E+00   0.00000000000000E+00   0.00000000000000E+00
      1.00689238986265E-18   1.85921010678828E-34   1.00689238986265E-18  -1.06398416775965E-17   3.64878151319037E-02
      3.64878139023421E-02   0.00000000000000E+00   0.00000000000000E+00   5.92653584940672E-09  -5.09892159077594E-35
      5.92653584940672E-09   4.91252630641759E-18
      4.73809432684667E-02
      0.00000000000000E+00   1.24656680685441E-09   0.00000000000000E+00   0.00000000000000E+00  -6.03366664291366E-09
     -1.34975300922201E-34  -6.03366664291366E-09   4.75182969216735E-18   0.00000000000000E+00   0.00000000000000E+00
      0.00000000000000E+00   0.00000000000000E+00   0.00000000000000E+00   0.00000000000000E+00   0.00000000000000E+00
      9.14738386865990E-19   0.00000000000000E+00   0.00000000000000E+00   0.00000000000000E+00   0.00000000000000E+00
     -7.12336400349978E-20   1.78359219651724E-34  -7.12336400349976E-20  -1.06372177485575E-17   4.07476112108814E-02
      4.07476099599068E-02   0.00000000000000E+00   0.00000000000000E+00   6.03366664298489E-09  -4.33839187295234E-35
      6.03366664298489E-09   4.97064966952416E-18
      5.27634762984928E-02
      0.00000000000000E+00   1.26767688407102E-09   0.00000000000000E+00   0.00000000000000E+00  -6.13995792358211E-09
     -1.27425759701359E-34  -6.13995792358211E-09   4.74931494670245E-18   0.00000000000000E+00   0.00000000000000E+00
      0.00000000000000E+00   0.00000000000000E+00   0.00000000000000E+00   0.00000000000000E+00   0.00000000000000E+00
      8.51291646254530E-19   0.00000000000000E+00   0.00000000000000E+00   0.00000000000000E+00   0.00000000000000E+00
     -1.70688027325019E-19   1.59691318313754E-34  -1.70688027325019E-19  -1.06345092939895E-17   4.53765896167038E-02
      4.53765883446811E-02   0.00000000000000E+00   0.00000000000000E+00   6.13995792375279E-09  -3.22655586123954E-35
      6.13995792375279E-09   5.03390270103254E-18
      5.86124955244545E-02
      0.00000000000000E+00   1.28984960742496E-09   0.00000000000000E+00   0.00000000000000E+00  -6.25212123737661E-09
     -1.22587999801295E-34  -6.25212123737661E-09   4.74658437697227E-18   0.00000000000000E+00   0.00000000000000E+00
      0.00000000000000E+00   0.00000000000000E+00   0.00000000000000E+00   0.00000000000000E+00   0.00000000000000E+00
      7.82398916452041E-19   0.00000000000000E+00   0.00000000000000E+00   0.00000000000000E+00   0.00000000000000E+00
     -4.97532566874051E-20   1.51841753037088E-34  -4.97532566874049E-20  -1.06317254266832E-17   5.04067461510308E-02
      5.04067448569311E-02   0.00000000000000E+00   0.00000000000000E+00   6.25212123742637E-09  -2.92537532357930E-35
      6.25212123742637E-09   5.10274213325887E-18
      6.49684297499995E-02
      0.00000000000000E+00   1.31410608648180E-09   0.00000000000000E+00   0.00000000000000E+00  -6.37508564366749E-09
     -1.24293654689666E-34  -6.37508564366749E-09   4.74361943959328E-18   0.00000000000000E+00   0.00000000000000E+00
      0.00000000000000E+00   0.00000000000000E+00   0.00000000000000E+00   0.00000000000000E+00   0.00000000000000E+00
      7.07592387520535E-19   0.00000000000000E+00   0.00000000000000E+00   0.00000000000000E+00   0.00000000000000E+00
     -5.49494232853814E-21   1.50764360352002E-34  -5.49494232853799E-21  -1.06288773159858E-17   5.58728495849995E-02
      5.58728482667764E-02   0.00000000000000E+00   0.00000000000000E+00   6.37508564367298E-09  -2.64707056623358E-35
      6.37508564367298E-09   5.17766548887194E-18
      7.18752116084250E-02
      0.00000000000000E+00   1.34114440696808E-09   0.00000000000000E+00   0.00000000000000E+00  -6.51229283755683E-09
     -1.31534151917044E-34  -6.51229283755683E-09   4.74040000819361E-18   0.00000000000000E+00   0.00000000000000E+00
      0.00000000000000E+00   0.00000000000000E+00   0.00000000000000E+00   0.00000000000000E+00   0.00000000000000E+00
      6.26363866988677E-19   0.00000000000000E+00   0.00000000000000E+00   0.00000000000000E+00   0.00000000000000E+00
      1.21032939704170E-19   1.50591444628748E-34   1.21032939704170E-19  -1.06259785538626E-17   6.18126819832455E-02
      6.18126806381642E-02   0.00000000000000E+00   0.00000000000000E+00   6.51229283743578E-09  -1.90572927117039E-35
      6.51229283743578E-09   5.25921467868029E-18
      7.93805812279142E-02
      0.00000000000000E+00   1.37129080644604E-09   0.00000000000000E+00   0.00000000000000E+00  -6.66538685338876E-09
     -1.56563018100161E-34  -6.66538685338876E-09   4.73690426102310E-18   0.00000000000000E+00   0.00000000000000E+00
      0.00000000000000E+00   0.00000000000000E+00   0.00000000000000E+00   0.00000000000000E+00   0.00000000000000E+00
      5.38161436167297E-19   0.00000000000000E+00   0.00000000000000E+00   0.00000000000000E+00   0.00000000000000E+00
      4.69888882131864E-20   1.72873287221442E-34   4.69888882131866E-20  -1.06230455954798E-17   6.82672998560062E-02
      6.82672984810077E-02   0.00000000000000E+00   0.00000000000000E+00   6.66538685334177E-09  -1.63102691212812E-35
      6.66538685334177E-09   5.34797989828944E-18
      8.75364162144257E-02
      0.00000000000000E+00   1.40463672941205E-09   0.00000000000000E+00   0.00000000000000E+00  -6.83485872559674E-09
     -1.38749485161977E-34  -6.83485872559674E-09   4.73310853314497E-18   0.00000000000000E+00   0.00000000000000E+00
      0.00000000000000E+00   0.00000000000000E+00   0.00000000000000E+00   0.00000000000000E+00   0.00000000000000E+00
      4.42385652507599E-19   0.00000000000000E+00   0.00000000000000E+00   0.00000000000000E+00   0.00000000000000E+00
     -2.75455263916074E-20   1.50825962615492E-34  -2.75455263916072E-20  -1.06200979955654E-17   7.52813179444061E-02
      7.52813165363266E-02   0.00000000000000E+00   0.00000000000000E+00   6.83485872562428E-09  -1.20764774535151E-35
      6.83485872562428E-09   5.44460380991283E-18
      9.63990902331015E-02
      0.00000000000000E+00   1.44135628736689E-09   0.00000000000000E+00   0.00000000000000E+00  -7.02167849383095E-09
     -1.52801180436774E-34  -7.02167849383095E-09   4.72898712877552E-18   0.00000000000000E+00   0.00000000000000E+00
      0.00000000000000E+00   0.00000000000000E+00   0.00000000000000E+00   0.00000000000000E+00   0.00000000000000E+00
      3.38385306797403E-19   0.00000000000000E+00   0.00000000000000E+00   0.00000000000000E+00   0.00000000000000E+00
     -1.29900582241051E-19   1.62389083395201E-34  -1.29900582241051E-19  -1.06171584844982E-17   8.29032176004673E-02
      8.29032161559630E-02   0.00000000000000E+00   0.00000000000000E+00   7.02167849396086E-09  -9.58790295842760E-36
      7.02167849396086E-09   5.54978604892528E-18
      1.06029862666729E-01
      0.00000000000000E+00   1.48183801893865E-09   0.00000000000000E+00   0.00000000000000E+00  -7.22793874761708E-09
     -1.66275126022634E-34  -7.22793874761708E-09   4.72451214148279E-18   0.00000000000000E+00   0.00000000000000E+00
      0.00000000000000E+00   0.00000000000000E+00   0.00000000000000E+00   0.00000000000000E+00   0.00000000000000E+00
      2.25452895963149E-19   0.00000000000000E+00   0.00000000000000E+00   0.00000000000000E+00   0.00000000000000E+00
     -1.10487764526306E-19   1.74023112453224E-34  -1.10487764526306E-19  -1.06142531547484E-17   9.11856818933871E-02
      9.11856804087380E-02   0.00000000000000E+00   0.00000000000000E+00   7.22793874772757E-09  -7.74798643058916E-36
      7.22793874772757E-09   5.66428811730250E-18
      1.16029862666729E-01
      0.00000000000000E+00   1.52462999196482E-09   0.00000000000000E+00   0.00000000000000E+00  -7.44631898916395E-09
     -1.47458116741526E-34  -7.44631898916395E-09   4.71986930653173E-18   0.00000000000000E+00   0.00000000000000E+00
      0.00000000000000E+00   0.00000000000000E+00   0.00000000000000E+00   0.00000000000000E+00   0.00000000000000E+00
      1.08272106973929E-19   0.00000000000000E+00   0.00000000000000E+00   0.00000000000000E+00   0.00000000000000E+00
     -2.27005259364180E-20   1.52541021939906E-34  -2.27005259364178E-20  -1.06115316744846E-17   9.97856818933871E-02
      9.97856803663217E-02   0.00000000000000E+00   0.00000000000000E+00   7.44631898918665E-09  -5.08290519837980E-36
      7.44631898918665E-09   5.78339026097899E-18
      1.26029862666729E-01
      0.00000000000000E+00   1.56832827116290E-09   0.00000000000000E+00   0.00000000000000E+00  -7.66967373402454E-09
     -1.43531111360267E-34  -7.66967373402454E-09   4.71523004408685E-18   0.00000000000000E+00   0.00000000000000E+00
      0.00000000000000E+00   0.00000000000000E+00   0.00000000000000E+00   0.00000000000000E+00   0.00000000000000E+00
     -8.83333026064802E-21   0.00000000000000E+00   0.00000000000000E+00   0.00000000000000E+00   0.00000000000000E+00
     -1.62788880513852E-19   1.47438205097930E-34  -1.62788880513852E-19  -1.06090891534533E-17   1.08385681893387E-01
      1.08385680323022E-01   0.00000000000000E+00   0.00000000000000E+00   7.66967373418733E-09  -3.90709373766345E-36
      7.66967373418733E-09   5.90269243962706E-18
      1.36029862666729E-01
      0.00000000000000E+00   1.61303343663147E-09   0.00000000000000E+00   0.00000000000000E+00  -7.89851429727787E-09
     -1.39160712777385E-34  -7.89851429727787E-09   4.71059416494370E-18   0.00000000000000E+00   0.00000000000000E+00
      0.00000000000000E+00   0.00000000000000E+00   0.00000000000000E+00   0.00000000000000E+00   0.00000000000000E+00
     -1.25869989759547E-19   0.00000000000000E+00   0.00000000000000E+00   0.00000000000000E+00   0.00000000000000E+00
      8.63768052510482E-20   1.41783196006125E-34   8.63768052510483E-20  -1.06069056229653E-17   1.16985681893387E-01
      1.16985680278739E-01   0.00000000000000E+00   0.00000000000000E+00   7.89851429719150E-09  -2.62248322873994E-36
      7.89851429719150E-09   6.02218144778119E-18
      1.46029862666729E-01
      0.00000000000000E+00   1.65879594567837E-09   0.00000000000000E+00   0.00000000000000E+00  -8.13309654692227E-09
     -1.27330577035720E-34  -8.13309654692227E-09   4.70596149501338E-18   0.00000000000000E+00   0.00000000000000E+00
      0.00000000000000E+00   0.00000000000000E+00   0.00000000000000E+00   0.00000000000000E+00   0.00000000000000E+00
     -2.42843631899543E-19   0.00000000000000E+00   0.00000000000000E+00   0.00000000000000E+00   0.00000000000000E+00
      5.54364287263550E-20   1.29563285200535E-34   5.54364287263552E-20  -1.06049629720241E-17   1.25585681893387E-01
      1.25585680233418E-01   0.00000000000000E+00   0.00000000000000E+00   8.13309654686684E-09  -2.23270816481434E-36
      8.13309654686684E-09   6.14184510891028E-18
      1.56029862666729E-01
      0.00000000000000E+00   1.70562818217609E-09   0.00000000000000E+00   0.00000000000000E+00  -8.37348267229520E-09
     -1.83903365618407E-34  -8.37348267229520E-09   4.70133187411937E-18   0.00000000000000E+00   0.00000000000000E+00
      0.00000000000000E+00   0.00000000000000E+00   0.00000000000000E+00   0.00000000000000E+00   0.00000000000000E+00
     -3.59759351724497E-19   0.00000000000000E+00   0.00000000000000E+00   0.00000000000000E+00   0.00000000000000E+00
      7.09431334667937E-20   1.85376575968910E-34   7.09431334667939E-20  -1.06032446870862E-17   1.34185681893387E-01
      1.34185680187040E-01   0.00000000000000E+00   0.00000000000000E+00   8.37348267222425E-09  -1.47321035050378E-36
      8.37348267222425E-09   6.26167216469137E-18
      1.66029862666729E-01
      0.00000000000000E+00   1.75352120432326E-09   0.00000000000000E+00   0.00000000000000E+00  -8.61963181216337E-09
     -1.26009766654907E-34  -8.61963181216337E-09   4.69670516288387E-18   0.00000000000000E+00   0.00000000000000E+00
      0.00000000000000E+00   0.00000000000000E+00   0.00000000000000E+00   0.00000000000000E+00   0.00000000000000E+00
     -4.76621537788586E-19   0.00000000000000E+00   0.00000000000000E+00   0.00000000000000E+00   0.00000000000000E+00
      1.78415797085819E-19   1.27043657400640E-34   1.78415797085819E-19  -1.06017358468828E-17   1.42785681893387E-01
      1.42785680139613E-01   0.00000000000000E+00   0.00000000000000E+00   8.61963181198495E-09  -1.03389074573273E-36
      8.61963181198495E-09   6.38165222178748E-18
      1.76029862666729E-01
      0.00000000000000E+00   1.80246584702623E-09   0.00000000000000E+00   0.00000000000000E+00  -8.87150645581650E-09
     -1.53484335967383E-34  -8.87150645581650E-09   4.69208124192261E-18   0.00000000000000E+00   0.00000000000000E+00
      0.00000000000000E+00   0.00000000000000E+00   0.00000000000000E+00   0.00000000000000E+00   0.00000000000000E+00
     -5.93434022800446E-19   0.00000000000000E+00   0.00000000000000E+00   0.00000000000000E+00   0.00000000000000E+00
     -3.01576444058525E-19   1.54318907386394E-34  -3.01576444058524E-19  -1.06004228876444E-17   1.51385681893387E-01
      1.51385680091152E-01   0.00000000000000E+00   0.00000000000000E+00   8.87150645611808E-09  -8.34571419011165E-37
      8.87150645611808E-09   6.50177566852222E-18
      1.86029862666729E-01
      0.00000000000000E+00   1.85246132244253E-09   0.00000000000000E+00   0.00000000000000E+00  -9.12911649901889E-09