DF-ISE text

Info {
  version   = 1.0
  type      = xyplot
  datasets  = [
    "time"
    "source OuterVoltage" "source InnerVoltage" "source QuasiFermiPotential" "source DisplacementCurrent" "source eCurrent"
    "source hCurrent" "source TotalCurrent" "source Charge" "gate OuterVoltage" "gate InnerVoltage"
    "gate QuasiFermiPotential" "gate DisplacementCurrent" "gate eCurrent" "gate hCurrent" "gate TotalCurrent"
    "gate Charge" "substrate OuterVoltage" "substrate InnerVoltage" "substrate QuasiFermiPotential" "substrate DisplacementCurrent"
    "substrate eCurrent" "substrate hCurrent" "substrate TotalCurrent" "substrate Charge" "drain OuterVoltage"
    "drain InnerVoltage" "drain QuasiFermiPotential" "drain DisplacementCurrent" "drain eCurrent" "drain hCurrent"
    "drain TotalCurrent" "drain Charge" ]
  functions = [
    Time
    OuterVoltage InnerVoltage QuasiFermiPotential DisplacementCurrent eCurrent
    hCurrent TotalCurrent Charge OuterVoltage InnerVoltage
    QuasiFermiPotential DisplacementCurrent eCurrent hCurrent TotalCurrent
    Charge OuterVoltage InnerVoltage QuasiFermiPotential DisplacementCurrent
    eCurrent hCurrent TotalCurrent Charge OuterVoltage
    InnerVoltage QuasiFermiPotential DisplacementCurrent eCurrent hCurrent
    TotalCurrent Charge ]
}

Data {
      0.00000000000000E+00
      0.00000000000000E+00   0.00000000000000E+00   0.00000000000000E+00   0.00000000000000E+00  -1.26428451284072E-21
      4.62607809432481E-34  -1.26428451284026E-21   4.89759266796610E-18   0.00000000000000E+00   0.00000000000000E+00
      0.00000000000000E+00   0.00000000000000E+00   0.00000000000000E+00   0.00000000000000E+00   0.00000000000000E+00
      4.17464208356454E-18   0.00000000000000E+00   0.00000000000000E+00   0.00000000000000E+00   0.00000000000000E+00
      6.57357597688362E-22  -9.71775153452741E-34   6.57357597687391E-22  -1.31958390756629E-17   0.00000000000000E+00
      0.00000000000000E+00   0.00000000000000E+00   0.00000000000000E+00   6.06926915152356E-22   5.09167344020259E-34
      6.06926915152865E-22   4.12360432413233E-18
      0.00000000000000E+00
      0.00000000000000E+00   0.00000000000000E+00   0.00000000000000E+00   0.00000000000000E+00  -1.95684354841672E-19
      4.97076685561247E-34  -1.95684354841671E-19   4.89599754750293E-18   0.00000000000000E+00   0.00000000000000E+00
      0.00000000000000E+00   0.00000000000000E+00   0.00000000000000E+00   0.00000000000000E+00   0.00000000000000E+00
      4.16831242809913E-18   0.00000000000000E+00   0.00000000000000E+00   0.00000000000000E+00   0.00000000000000E+00
      1.28218136500359E-19  -9.97895102737302E-34   1.28218136500358E-19  -1.31866379996108E-17   0.00000000000000E+00
      0.00000000000000E+00   0.00000000000000E+00   0.00000000000000E+00   6.74662183413129E-20   5.00818417176055E-34
      6.74662183413134E-20   4.12232802400868E-18
      1.00000000000000E-03
      0.00000000000000E+00   1.96910535401708E-11   0.00000000000000E+00   0.00000000000000E+00  -9.06039654630931E-11
      4.80119205594286E-34  -9.06039654630931E-11   4.89579539786928E-18   0.00000000000000E+00   0.00000000000000E+00
      0.00000000000000E+00   0.00000000000000E+00   0.00000000000000E+00   0.00000000000000E+00   0.00000000000000E+00
      4.15791018246862E-18   0.00000000000000E+00   0.00000000000000E+00   0.00000000000000E+00   0.00000000000000E+00
     -6.14135034102867E-18  -9.62438932310485E-34  -6.14135034102867E-18  -1.31861669073900E-17   8.60000000000000E-04
      8.59999980259928E-04   0.00000000000000E+00   0.00000000000000E+00   9.06039716044435E-11   4.82319726716200E-34
      9.06039716044435E-11   4.13246132705208E-18
      2.08666666666667E-03
      0.00000000000000E+00   3.98745464709185E-11   0.00000000000000E+00   0.00000000000000E+00  -1.83465635802757E-10
      4.77904452779542E-34  -1.83465635802757E-10   4.89557577283417E-18   0.00000000000000E+00   0.00000000000000E+00
      0.00000000000000E+00   0.00000000000000E+00   0.00000000000000E+00   0.00000000000000E+00   0.00000000000000E+00
      4.14660902187992E-18   0.00000000000000E+00   0.00000000000000E+00   0.00000000000000E+00   0.00000000000000E+00
      1.09399241962494E-15  -9.40892633302718E-34   1.09399241962494E-15  -1.31856616440460E-17   1.79453333333333E-03
      1.79453329335959E-03   0.00000000000000E+00   0.00000000000000E+00   1.83464541810337E-10   4.62988180523176E-34
      1.83464541810337E-10   4.14347684933194E-18
      3.28200000000000E-03
      0.00000000000000E+00   6.06390901520756E-11   0.00000000000000E+00   0.00000000000000E+00  -2.78989769114513E-10
      4.67290766125142E-34  -2.78989769114513E-10   4.89533423787171E-18   0.00000000000000E+00   0.00000000000000E+00
      0.00000000000000E+00   0.00000000000000E+00   0.00000000000000E+00   0.00000000000000E+00   0.00000000000000E+00
      4.13418084037173E-18   0.00000000000000E+00   0.00000000000000E+00   0.00000000000000E+00   0.00000000000000E+00
      1.56438892797954E-15  -9.18831938694114E-34   1.56438892797954E-15  -1.31851137672081E-17   2.82252000000000E-03
      2.82251993921022E-03   0.00000000000000E+00   0.00000000000000E+00   2.78988204725585E-10   4.51541172568971E-34
      2.78988204725585E-10   4.15559868896466E-18
      4.59686666666667E-03
      0.00000000000000E+00   8.18124806809121E-11   0.00000000000000E+00   0.00000000000000E+00  -3.76381645635648E-10
      4.75775427709103E-34  -3.76381645635648E-10   4.89506861195609E-18   0.00000000000000E+00   0.00000000000000E+00
      0.00000000000000E+00   0.00000000000000E+00   0.00000000000000E+00   0.00000000000000E+00   0.00000000000000E+00
      4.12051352327185E-18   0.00000000000000E+00   0.00000000000000E+00   0.00000000000000E+00   0.00000000000000E+00
      1.14725051760177E-19  -8.78813493775339E-34   1.14725051760176E-19  -1.31845205532583E-17   3.95330533333333E-03
      3.95330525131783E-03   0.00000000000000E+00   0.00000000000000E+00   3.76381645520923E-10   4.03038066066235E-34
      3.76381645520923E-10   4.16893841803034E-18
      6.03445422222222E-03
      0.00000000000000E+00   1.03073881152537E-10   0.00000000000000E+00   0.00000000000000E+00  -4.74164077517353E-10
      4.70110556655532E-34  -4.74164077517353E-10   4.89477826775447E-18   0.00000000000000E+00   0.00000000000000E+00
      0.00000000000000E+00   0.00000000000000E+00   0.00000000000000E+00   0.00000000000000E+00   0.00000000000000E+00
      4.10557492419022E-18   0.00000000000000E+00   0.00000000000000E+00   0.00000000000000E+00   0.00000000000000E+00
     -7.41367453629713E-20  -8.71309374843266E-34  -7.41367453629722E-20  -1.31838831421987E-17   5.18963063111111E-03
      5.18963052778159E-03   0.00000000000000E+00   0.00000000000000E+00   4.74164077591490E-10   4.01198818187734E-34
      4.74164077591490E-10   4.18352995025399E-18
      7.60621661629630E-03
      0.00000000000000E+00   1.24213814192797E-10   0.00000000000000E+00   0.00000000000000E+00  -5.71372107354318E-10
      4.95929810115869E-34  -5.71372107354318E-10   4.89446091053289E-18   0.00000000000000E+00   0.00000000000000E+00
      0.00000000000000E+00   0.00000000000000E+00   0.00000000000000E+00   0.00000000000000E+00   0.00000000000000E+00
      4.08924713376773E-18   0.00000000000000E+00   0.00000000000000E+00   0.00000000000000E+00   0.00000000000000E+00
      1.54145518020470E-20  -8.88885779549601E-34   1.54145518020461E-20  -1.31831993851464E-17   6.54134629001482E-03
      6.54134616549301E-03   0.00000000000000E+00   0.00000000000000E+00   5.71372107338903E-10   3.92955969433731E-34
      5.71372107338903E-10   4.19949134084577E-18
      9.32467683381729E-03
      0.00000000000000E+00   1.45005920700903E-10   0.00000000000000E+00   0.00000000000000E+00  -6.66964050197101E-10
      4.84402666417751E-34  -6.66964050197101E-10   4.89411403312691E-18   0.00000000000000E+00   0.00000000000000E+00
      0.00000000000000E+00   0.00000000000000E+00   0.00000000000000E+00   0.00000000000000E+00   0.00000000000000E+00
      4.07140135418874E-18   0.00000000000000E+00   0.00000000000000E+00   0.00000000000000E+00   0.00000000000000E+00
      1.44173788489909E-19  -8.63214877865361E-34   1.44173788489908E-19  -1.31824672602377E-17   8.01922207708287E-03
      8.01922193171737E-03   0.00000000000000E+00   0.00000000000000E+00   6.66964050052927E-10   3.78812211447609E-34
      6.66964050052927E-10   4.21695187292204E-18
      1.12035266716402E-02
      0.00000000000000E+00   1.65211288170989E-10   0.00000000000000E+00   0.00000000000000E+00  -7.59841492350598E-10
      4.76270443155547E-34  -7.59841492350598E-10   4.89373489628876E-18   0.00000000000000E+00   0.00000000000000E+00
      0.00000000000000E+00   0.00000000000000E+00   0.00000000000000E+00   0.00000000000000E+00   0.00000000000000E+00
      4.05189689808448E-18   0.00000000000000E+00   0.00000000000000E+00   0.00000000000000E+00   0.00000000000000E+00
      7.89632428976367E-20  -8.32690949270462E-34   7.89632428976359E-20  -1.31816849326516E-17   9.63503293761060E-03
      9.63503277198943E-03   0.00000000000000E+00   0.00000000000000E+00   7.59841492271635E-10   3.56420506114915E-34
      7.59841492271635E-10   4.23605313827846E-18
      1.32577358276600E-02
      0.00000000000000E+00   1.84585107222437E-10   0.00000000000000E+00   0.00000000000000E+00  -8.48880017480600E-10
      4.86701212737151E-34  -8.48880017480600E-10   4.89332050718638E-18   0.00000000000000E+00   0.00000000000000E+00
      0.00000000000000E+00   0.00000000000000E+00   0.00000000000000E+00   0.00000000000000E+00   0.00000000000000E+00
      4.03058009496913E-18   0.00000000000000E+00   0.00000000000000E+00   0.00000000000000E+00   0.00000000000000E+00
      1.11821956590057E-19  -8.06995534858701E-34   1.11821956590056E-19  -1.31808508254171E-17   1.14016528117876E-02
      1.14016526267441E-02   0.00000000000000E+00   0.00000000000000E+00   8.48880017368778E-10   3.20294322121550E-34
      8.48880017368778E-10   4.25695022326154E-18
      1.55036711715749E-02
      0.00000000000000E+00   2.02885316624085E-10   0.00000000000000E+00   0.00000000000000E+00  -9.32969411474349E-10
      4.82543386704815E-34  -9.32969411474349E-10   4.89286759588210E-18   0.00000000000000E+00   0.00000000000000E+00
      0.00000000000000E+00   0.00000000000000E+00   0.00000000000000E+00   0.00000000000000E+00   0.00000000000000E+00
      4.00728309657114E-18   0.00000000000000E+00   0.00000000000000E+00   0.00000000000000E+00   0.00000000000000E+00
     -6.31354839101674E-20  -7.76853557896915E-34  -6.31354839101682E-20  -1.31799637023632E-17   1.33331572075544E-02
      1.33331570041644E-02   0.00000000000000E+00   0.00000000000000E+00   9.32969411537485E-10   2.94310171192100E-34
      9.32969411537485E-10   4.27981300991001E-18
      1.79592271475886E-02
      0.00000000000000E+00   2.19883688843349E-10   0.00000000000000E+00   0.00000000000000E+00  -1.01106451476139E-09
      4.97655258706178E-34  -1.01106451476139E-09   4.89237258957143E-18   0.00000000000000E+00   0.00000000000000E+00
      0.00000000000000E+00   0.00000000000000E+00   0.00000000000000E+00   0.00000000000000E+00   0.00000000000000E+00
      3.98182257027343E-18   0.00000000000000E+00   0.00000000000000E+00   0.00000000000000E+00   0.00000000000000E+00
     -1.35099581875483E-19  -7.78713413564932E-34  -1.35099581875484E-19  -1.31790227628174E-17   1.54449353469262E-02
      1.54449351264942E-02   0.00000000000000E+00   0.00000000000000E+00   1.01106451489649E-09   2.81058154858755E-34
      1.01106451489649E-09   4.30482760297250E-18
      2.06439683480302E-02
      0.00000000000000E+00   2.35378568800623E-10   0.00000000000000E+00   0.00000000000000E+00  -1.08224423458489E-09
      4.52816018903759E-34  -1.08224423458489E-09   4.89183158437060E-18   0.00000000000000E+00   0.00000000000000E+00
      0.00000000000000E+00   0.00000000000000E+00   0.00000000000000E+00   0.00000000000000E+00   0.00000000000000E+00
      3.95399827048811E-18   0.00000000000000E+00   0.00000000000000E+00   0.00000000000000E+00   0.00000000000000E+00
     -1.49553993511739E-19  -7.20257048890492E-34  -1.49553993511740E-19  -1.31780277497849E-17   1.77538127793060E-02
      1.77538125433387E-02   0.00000000000000E+00   0.00000000000000E+00   1.08224423473444E-09   2.67441029986731E-34
      1.08224423473444E-09   4.33219789492626E-18
      2.35792853938464E-02
      0.00000000000000E+00   2.49208951565018E-10   0.00000000000000E+00   0.00000000000000E+00  -1.14577622332808E-09
      4.75930857384874E-34  -1.14577622332808E-09   4.89124031443619E-18   0.00000000000000E+00   0.00000000000000E+00
      0.00000000000000E+00   0.00000000000000E+00   0.00000000000000E+00   0.00000000000000E+00   0.00000000000000E+00
      3.92359147746940E-18   0.00000000000000E+00   0.00000000000000E+00   0.00000000000000E+00   0.00000000000000E+00
      1.60222751812189E-19  -7.16794010755590E-34   1.60222751812188E-19  -1.31769790745285E-17   2.02781854387079E-02
      2.02781851888732E-02   0.00000000000000E+00   0.00000000000000E+00   1.14577622316786E-09   2.40863153370716E-34
      1.14577622316786E-09   4.36214728262293E-18
      2.67885653639387E-02
      0.00000000000000E+00   2.61269827064860E-10   0.00000000000000E+00   0.00000000000000E+00  -1.20118746879452E-09
      5.07550404628147E-34  -1.20118746879452E-09   4.89059411807134E-18   0.00000000000000E+00   0.00000000000000E+00
      0.00000000000000E+00   0.00000000000000E+00   0.00000000000000E+00   0.00000000000000E+00   0.00000000000000E+00
      3.89036328570301E-18   0.00000000000000E+00   0.00000000000000E+00   0.00000000000000E+00   0.00000000000000E+00
     -3.95786310019984E-19  -7.30991148843740E-34  -3.95786310019985E-19  -1.31758779512297E-17   2.30381662129873E-02
      2.30381659510584E-02   0.00000000000000E+00   0.00000000000000E+00   1.20118746919030E-09   2.23440744215592E-34
      1.20118746919030E-09   4.39492054745535E-18
      3.02973781312396E-02
      0.00000000000000E+00   2.71526614096743E-10   0.00000000000000E+00   0.00000000000000E+00  -1.24833043167605E-09
      4.48074190203487E-34  -1.24833043167605E-09   4.88988790063403E-18   0.00000000000000E+00   0.00000000000000E+00
      0.00000000000000E+00   0.00000000000000E+00   0.00000000000000E+00   0.00000000000000E+00   0.00000000000000E+00
      3.85405273294527E-18   0.00000000000000E+00   0.00000000000000E+00   0.00000000000000E+00   0.00000000000000E+00
     -3.27538950495006E-19  -6.44385612196104E-34  -3.27538950495006E-19  -1.31747265500363E-17   2.60557451928661E-02
      2.60557449206513E-02   0.00000000000000E+00   0.00000000000000E+00   1.24833043200359E-09   1.96311421992616E-34
      1.24833043200359E-09   4.43078591645701E-18
      3.41336800901553E-02
      0.00000000000000E+00   2.80029155029050E-10   0.00000000000000E+00   0.00000000000000E+00  -1.28744664503518E-09
      4.95482725273639E-34  -1.28744664503518E-09   4.88911609379339E-18   0.00000000000000E+00   0.00000000000000E+00
      0.00000000000000E+00   0.00000000000000E+00   0.00000000000000E+00   0.00000000000000E+00   0.00000000000000E+00
      3.81437474280144E-18   0.00000000000000E+00   0.00000000000000E+00   0.00000000000000E+00   0.00000000000000E+00
     -6.98525736082536E-19  -6.76060568221853E-34  -6.98525736082537E-19  -1.31735281535599E-17   2.93549648775336E-02
      2.93549645967912E-02   0.00000000000000E+00   0.00000000000000E+00   1.28744664573370E-09   1.80577842948214E-34
      1.28744664573370E-09   4.47003731696507E-18
      3.83280368985698E-02
      0.00000000000000E+00   2.86918879691450E-10   0.00000000000000E+00   0.00000000000000E+00  -1.31919922684783E-09
      5.06990325424535E-34  -1.31919922684783E-09   4.88827261102048E-18   0.00000000000000E+00   0.00000000000000E+00
      0.00000000000000E+00   0.00000000000000E+00   0.00000000000000E+00   0.00000000000000E+00   0.00000000000000E+00
      3.77101787756965E-18   0.00000000000000E+00   0.00000000000000E+00   0.00000000000000E+00   0.00000000000000E+00
     -1.08201155658687E-18  -6.63803634343169E-34  -1.08201155658687E-18  -1.31722873345969E-17   3.29621117327701E-02
      3.29621114451173E-02   0.00000000000000E+00   0.00000000000000E+00   1.31919922792984E-09   1.56813308918634E-34
      1.31919922792984E-09   4.51299684600680E-18
      4.29138670091030E-02
      0.00000000000000E+00   2.92429182712914E-10   0.00000000000000E+00   0.00000000000000E+00  -1.34467310825204E-09
      4.91403220883639E-34  -1.34467310825204E-09   4.88735079884037E-18   0.00000000000000E+00   0.00000000000000E+00
      0.00000000000000E+00   0.00000000000000E+00   0.00000000000000E+00   0.00000000000000E+00   0.00000000000000E+00
      3.72364186610028E-18   0.00000000000000E+00   0.00000000000000E+00   0.00000000000000E+00   0.00000000000000E+00
     -2.13929001105582E-18  -6.33444417306727E-34  -2.13929001105583E-18  -1.31710101331829E-17   3.69059256278286E-02
      3.69059253346496E-02   0.00000000000000E+00   0.00000000000000E+00   1.34467311039133E-09   1.42041196423088E-34
      1.34467311039133E-09   4.56001746824231E-18
      4.79277079299527E-02
      0.00000000000000E+00   2.96872201199250E-10   0.00000000000000E+00   0.00000000000000E+00  -1.36531235310710E-09
      4.61536303969720E-34  -1.36531235310710E-09   4.88634338370154E-18   0.00000000000000E+00   0.00000000000000E+00
      0.00000000000000E+00   0.00000000000000E+00   0.00000000000000E+00   0.00000000000000E+00   0.00000000000000E+00
      3.67187489570847E-18   0.00000000000000E+00   0.00000000000000E+00   0.00000000000000E+00   0.00000000000000E+00
     -2.99789496379478E-18  -5.78604942897218E-34  -2.99789496379478E-18  -1.31697042439655E-17   4.12178288197593E-02
      4.12178285221262E-02   0.00000000000000E+00   0.00000000000000E+00   1.36531235610499E-09   1.17068638927498E-34
      1.36531235610499E-09   4.61148596455554E-18
      5.34095073367482E-02
      0.00000000000000E+00   3.00610663214584E-10   0.00000000000000E+00   0.00000000000000E+00  -1.38278932903849E-09
      4.93997541813094E-34  -1.38278932903849E-09   4.88524241412814E-18   0.00000000000000E+00   0.00000000000000E+00
      0.00000000000000E+00   0.00000000000000E+00   0.00000000000000E+00   0.00000000000000E+00   0.00000000000000E+00
      3.61531064243726E-18   0.00000000000000E+00   0.00000000000000E+00   0.00000000000000E+00   0.00000000000000E+00
     -4.70399740936097E-18  -5.94173586812261E-34  -4.70399740936097E-18  -1.31683792061814E-17   4.59321763096035E-02
      4.59321760082264E-02   0.00000000000000E+00   0.00000000000000E+00   1.38278933374249E-09   1.00176044999166E-34
      1.38278933374249E-09   4.66782614961600E-18
      5.94029413548448E-02
      0.00000000000000E+00   3.04017416342580E-10   0.00000000000000E+00   0.00000000000000E+00  -1.39881950472643E-09
      4.86703236574508E-34  -1.39881950472643E-09   4.88403919802713E-18   0.00000000000000E+00   0.00000000000000E+00
      0.00000000000000E+00   0.00000000000000E+00   0.00000000000000E+00   0.00000000000000E+00   0.00000000000000E+00
      3.55350502748867E-18   0.00000000000000E+00   0.00000000000000E+00   0.00000000000000E+00   0.00000000000000E+00
     -7.86641487953941E-18  -5.70108516906095E-34  -7.86641487953941E-18  -1.31670466073319E-17   5.10865295651665E-02
      5.10865292603831E-02   0.00000000000000E+00   0.00000000000000E+00   1.39881951259284E-09   8.34052803315865E-35
      1.39881951259284E-09   4.72950238181614E-18
      6.59557625479636E-02
      0.00000000000000E+00   3.07423062354196E-10   0.00000000000000E+00   0.00000000000000E+00  -1.41492106797739E-09
      4.57655415685155E-34  -1.41492106797739E-09   4.88272423516820E-18   0.00000000000000E+00   0.00000000000000E+00
      0.00000000000000E+00   0.00000000000000E+00   0.00000000000000E+00   0.00000000000000E+00   0.00000000000000E+00
      3.48597268634957E-18   0.00000000000000E+00   0.00000000000000E+00   0.00000000000000E+00   0.00000000000000E+00
     -4.13842230658620E-18  -5.26680756729671E-34  -4.13842230658620E-18  -1.31657203094713E-17   5.67219557912487E-02
      5.67219554830666E-02   0.00000000000000E+00   0.00000000000000E+00   1.41492107211581E-09   6.90253410445150E-35
      1.41492107211581E-09   4.79702338795353E-18
      7.31201803857736E-02
      0.00000000000000E+00   3.11059811855888E-10   0.00000000000000E+00   0.00000000000000E+00  -1.43215438913714E-09
      4.75443984854455E-34  -1.43215438913714E-09   4.88128714387144E-18   0.00000000000000E+00   0.00000000000000E+00
      0.00000000000000E+00   0.00000000000000E+00   0.00000000000000E+00   0.00000000000000E+00   0.00000000000000E+00
      3.41218312103975E-18   0.00000000000000E+00   0.00000000000000E+00   0.00000000000000E+00   0.00000000000000E+00
      4.02196029997094E-20  -5.31966858449634E-34   4.02196029997089E-20  -1.31644166917612E-17   6.28833551317653E-02
      6.28833548199598E-02   0.00000000000000E+00   0.00000000000000E+00   1.43215438909692E-09   5.65228735951799E-35
      1.43215438909692E-09   4.87094642684996E-18
      8.09055144361937E-02
      0.00000000000000E+00   3.15030503289251E-10   0.00000000000000E+00   0.00000000000000E+00  -1.45098421746377E-09
      4.75499754132103E-34  -1.45098421746377E-09   4.87972615336572E-18   0.00000000000000E+00   0.00000000000000E+00
      0.00000000000000E+00   0.00000000000000E+00   0.00000000000000E+00   0.00000000000000E+00   0.00000000000000E+00
      3.33204794966945E-18   0.00000000000000E+00   0.00000000000000E+00   0.00000000000000E+00   0.00000000000000E+00
     -2.84021602644786E-20  -5.19235294684173E-34  -2.84021602644792E-20  -1.31631620697859E-17   6.95787424151266E-02
      6.95787420993706E-02   0.00000000000000E+00   0.00000000000000E+00   1.45098421749217E-09   4.37355405520693E-35
      1.45098421749217E-09   4.95138796675076E-18
      8.93655774376503E-02
      0.00000000000000E+00   3.19404940314408E-10   0.00000000000000E+00   0.00000000000000E+00  -1.47173237688169E-09
      4.94604617911899E-34  -1.47173237688169E-09   4.87803057432015E-18   0.00000000000000E+00   0.00000000000000E+00
      0.00000000000000E+00   0.00000000000000E+00   0.00000000000000E+00   0.00000000000000E+00   0.00000000000000E+00
      3.24502085363922E-18   0.00000000000000E+00   0.00000000000000E+00   0.00000000000000E+00   0.00000000000000E+00
     -1.74243320193300E-19  -5.29594960425326E-34  -1.74243320193301E-19  -1.31619765921514E-17   7.68543965963792E-02
      7.68543962762752E-02   0.00000000000000E+00   0.00000000000000E+00   1.47173237705593E-09   3.49903425134269E-35
      1.47173237705593E-09   5.03892516419204E-18
      9.85588458992330E-02
      0.00000000000000E+00   3.24214760123637E-10   0.00000000000000E+00   0.00000000000000E+00  -1.49455067832968E-09
      4.75379615868586E-34  -1.49455067832968E-09   4.87618879693891E-18   0.00000000000000E+00   0.00000000000000E+00
      0.00000000000000E+00   0.00000000000000E+00   0.00000000000000E+00   0.00000000000000E+00   0.00000000000000E+00
      3.15050831960794E-18   0.00000000000000E+00   0.00000000000000E+00   0.00000000000000E+00   0.00000000000000E+00
     -2.60328138285303E-19  -5.02273505905399E-34  -2.60328138285303E-19  -1.31608830067569E-17   8.47606074733404E-02
      8.47606071484567E-02   0.00000000000000E+00   0.00000000000000E+00   1.49455067859001E-09   2.68938900368130E-35
      1.49455067859001E-09   5.13418589021009E-18
      1.08548864294153E-01
      0.00000000000000E+00   3.29462863018820E-10   0.00000000000000E+00   0.00000000000000E+00  -1.51946212417668E-09
      4.66554825541753E-34  -1.51946212417668E-09   4.87418821153935E-18   0.00000000000000E+00   0.00000000000000E+00
      0.00000000000000E+00   0.00000000000000E+00   0.00000000000000E+00   0.00000000000000E+00   0.00000000000000E+00
      3.04786555579249E-18   0.00000000000000E+00   0.00000000000000E+00   0.00000000000000E+00   0.00000000000000E+00
      2.90534758814465E-19  -4.86119718968990E-34   2.90534758814464E-19  -1.31599067911452E-17   9.33520232929716E-02
      9.33520229628743E-02   0.00000000000000E+00   0.00000000000000E+00   1.51946212388614E-09   1.95648934272369E-35
      1.51946212388614E-09   5.23785302381328E-18
      1.18548864294153E-01
      0.00000000000000E+00   3.34723061755237E-10   0.00000000000000E+00   0.00000000000000E+00  -1.54445134735660E-09
      4.73167243160478E-34  -1.54445134735660E-09   4.87218640032643E-18   0.00000000000000E+00   0.00000000000000E+00
      0.00000000000000E+00   0.00000000000000E+00   0.00000000000000E+00   0.00000000000000E+00   0.00000000000000E+00
      2.94517758367436E-18   0.00000000000000E+00   0.00000000000000E+00   0.00000000000000E+00   0.00000000000000E+00
     -2.14625467822470E-19  -4.88323913292060E-34  -2.14625467822471E-19  -1.31591332733553E-17   1.01952023292972E-01
      1.01952022957653E-01   0.00000000000000E+00   0.00000000000000E+00   1.54445134757123E-09   1.51566701315815E-35
      1.54445134757123E-09   5.34176928935455E-18
      1.28548864294153E-01
      0.00000000000000E+00   3.40000956095449E-10   0.00000000000000E+00   0.00000000000000E+00  -1.56954562181277E-09
      4.79297909014573E-34  -1.56954562181277E-09   4.87018529220025E-18   0.00000000000000E+00   0.00000000000000E+00
      0.00000000000000E+00   0.00000000000000E+00   0.00000000000000E+00   0.00000000000000E+00   0.00000000000000E+00
      2.84254143914723E-18   0.00000000000000E+00   0.00000000000000E+00   0.00000000000000E+00   0.00000000000000E+00
     -1.17325952356529E-19  -4.90358109557841E-34  -1.17325952356530E-19  -1.31585471465186E-17   1.10552023292972E-01
      1.10552022952419E-01   0.00000000000000E+00   0.00000000000000E+00   1.56954562193009E-09   1.10602005432687E-35
      1.56954562193009E-09   5.44582041517112E-18
      1.38548864294153E-01
      0.00000000000000E+00   3.45309020878553E-10   0.00000000000000E+00   0.00000000000000E+00  -1.59480264533005E-09
      4.69020327270487E-34  -1.59480264533005E-09   4.86818482593569E-18   0.00000000000000E+00   0.00000000000000E+00
      0.00000000000000E+00   0.00000000000000E+00   0.00000000000000E+00   0.00000000000000E+00   0.00000000000000E+00
      2.73995229691259E-18   0.00000000000000E+00   0.00000000000000E+00   0.00000000000000E+00   0.00000000000000E+00
     -7.13706558581745E-20  -4.77224547820556E-34  -7.13706558581750E-20  -1.31581336544106E-17   1.19152023292972E-01
      1.19152022947155E-01   0.00000000000000E+00   0.00000000000000E+00   1.59480264540142E-09   8.20422055006814E-36
      1.59480264540142E-09   5.54999653156232E-18
      1.48548864294153E-01
      0.00000000000000E+00   3.50654686675757E-10   0.00000000000000E+00   0.00000000000000E+00  -1.62025635501248E-09
      4.73329231287553E-34  -1.62025635501248E-09   4.86618494971257E-18   0.00000000000000E+00   0.00000000000000E+00
      0.00000000000000E+00   0.00000000000000E+00   0.00000000000000E+00   0.00000000000000E+00   0.00000000000000E+00
      2.63740600275297E-18   0.00000000000000E+00   0.00000000000000E+00   0.00000000000000E+00   0.00000000000000E+00
     -1.43076911786096E-19  -4.79398336346084E-34  -1.43076911786097E-19  -1.31578795359511E-17   1.27752023292972E-01
      1.27752022941849E-01   0.00000000000000E+00   0.00000000000000E+00   1.62025635515556E-09   6.06910505853070E-36
      1.62025635515556E-09   5.65428858348554E-18
      1.58548864294153E-01
      0.00000000000000E+00   3.56041470144590E-10   0.00000000000000E+00   0.00000000000000E+00  -1.64592220948052E-09
      4.69387326895155E-34  -1.64592220948052E-09   4.86418561794593E-18   0.00000000000000E+00   0.00000000000000E+00
      0.00000000000000E+00   0.00000000000000E+00   0.00000000000000E+00   0.00000000000000E+00   0.00000000000000E+00
      2.53489892850720E-18   0.00000000000000E+00   0.00000000000000E+00   0.00000000000000E+00   0.00000000000000E+00
     -1.00263899439427E-20  -4.74051018794485E-34  -1.00263899439431E-20  -1.31577727934409E-17   1.36352023292972E-01
      1.36352022936499E-01   0.00000000000000E+00   0.00000000000000E+00   1.64592220949055E-09   4.66369189932924E-36
      1.64592220949055E-09   5.75868824698776E-18
      1.68548864294153E-01
      0.00000000000000E+00   3.61470269814287E-10   0.00000000000000E+00   0.00000000000000E+00  -1.67180369221604E-09
      4.54045206327301E-34  -1.67180369221604E-09   4.86218678914452E-18   0.00000000000000E+00   0.00000000000000E+00
      0.00000000000000E+00   0.00000000000000E+00   0.00000000000000E+00   0.00000000000000E+00   0.00000000000000E+00
      2.43242784507715E-18   0.00000000000000E+00   0.00000000000000E+00   0.00000000000000E+00   0.00000000000000E+00
     -1.24955894176045E-19  -4.57256629363188E-34  -1.24955894176046E-19  -1.31578024899052E-17   1.44952023292972E-01
      1.44952022931105E-01   0.00000000000000E+00   0.00000000000000E+00   1.67180369234099E-09   3.21142303588731E-36
      1.67180369234099E-09   5.86318785568348E-18
      1.78548864294153E-01
      0.00000000000000E+00   3.66940525210639E-10   0.00000000000000E+00   0.00000000000000E+00  -1.69789773041880E-09
      4.66938018775655E-34  -1.69789773041880E-09   4.86018842536872E-18   0.00000000000000E+00   0.00000000000000E+00
      0.00000000000000E+00   0.00000000000000E+00   0.00000000000000E+00   0.00000000000000E+00   0.00000000000000E+00
      2.32998986318017E-18   0.00000000000000E+00   0.00000000000000E+00   0.00000000000000E+00   0.00000000000000E+00
     -3.51928368008173E-19  -4.69464113661220E-34  -3.51928368008173E-19  -1.31579586283000E-17   1.53552023292972E-01
      1.53552022925668E-01   0.00000000000000E+00   0.00000000000000E+00   1.69789773077073E-09   2.52609488556547E-36
      1.69789773077073E-09   5.96778033975111E-18
      1.88548864294153E-01
      0.00000000000000E+00   3.72451204463557E-10   0.00000000000000E+00   0.00000000000000E+00  -1.72419946637381E-09