DF-ISE text

Info {
  version   = 1.0
  type      = xyplot
  datasets  = [
    "time"
    "source OuterVoltage" "source InnerVoltage" "source QuasiFermiPotential" "source DisplacementCurrent" "source eCurrent"
    "source hCurrent" "source TotalCurrent" "source Charge" "gate OuterVoltage" "gate InnerVoltage"
    "gate QuasiFermiPotential" "gate DisplacementCurrent" "gate eCurrent" "gate hCurrent" "gate TotalCurrent"
    "gate Charge" "substrate OuterVoltage" "substrate InnerVoltage" "substrate QuasiFermiPotential" "substrate DisplacementCurrent"
    "substrate eCurrent" "substrate hCurrent" "substrate TotalCurrent" "substrate Charge" "drain OuterVoltage"
    "drain InnerVoltage" "drain QuasiFermiPotential" "drain DisplacementCurrent" "drain eCurrent" "drain hCurrent"
    "drain TotalCurrent" "drain Charge" ]
  functions = [
    Time
    OuterVoltage InnerVoltage QuasiFermiPotential DisplacementCurrent eCurrent
    hCurrent TotalCurrent Charge OuterVoltage InnerVoltage
    QuasiFermiPotential DisplacementCurrent eCurrent hCurrent TotalCurrent
    Charge OuterVoltage InnerVoltage QuasiFermiPotential DisplacementCurrent
    eCurrent hCurrent TotalCurrent Charge OuterVoltage
    InnerVoltage QuasiFermiPotential DisplacementCurrent eCurrent hCurrent
    TotalCurrent Charge ]
}

Data {
      0.00000000000000E+00
      0.00000000000000E+00   0.00000000000000E+00   0.00000000000000E+00   0.00000000000000E+00  -7.45091506843970E-21
      5.39404465297167E-34  -7.45091506843916E-21   5.58178172519432E-18   0.00000000000000E+00   0.00000000000000E+00
      0.00000000000000E+00   0.00000000000000E+00   0.00000000000000E+00   0.00000000000000E+00   0.00000000000000E+00
      4.55424954442536E-18   0.00000000000000E+00   0.00000000000000E+00   0.00000000000000E+00   0.00000000000000E+00
      3.07727848906716E-21  -1.11018871876317E-33   3.07727848906605E-21  -1.48851339730212E-17   0.00000000000000E+00
      0.00000000000000E+00   0.00000000000000E+00   0.00000000000000E+00   4.37363657937255E-21   5.70784253466008E-34
      4.37363657937312E-21   4.74910270340157E-18
      0.00000000000000E+00
      0.00000000000000E+00   0.00000000000000E+00   0.00000000000000E+00   0.00000000000000E+00  -2.86282926915943E-19
      5.41552969985266E-34  -2.86282926915943E-19   5.57972314712325E-18   0.00000000000000E+00   0.00000000000000E+00
      0.00000000000000E+00   0.00000000000000E+00   0.00000000000000E+00   0.00000000000000E+00   0.00000000000000E+00
      4.54706935150835E-18   0.00000000000000E+00   0.00000000000000E+00   0.00000000000000E+00   0.00000000000000E+00
      3.84370860162877E-19  -1.11216910336201E-33   3.84370860162876E-19  -1.48742242114578E-17   0.00000000000000E+00
      0.00000000000000E+00   0.00000000000000E+00   0.00000000000000E+00  -9.80879332469343E-20   5.70616133376741E-34
     -9.80879332469337E-20   4.74743171282622E-18
      1.00000000000000E-03
      0.00000000000000E+00   9.73830561396691E-13   0.00000000000000E+00   0.00000000000000E+00  -4.89549736454176E-12
      5.44682724310528E-34  -4.89549736454176E-12   5.57970677962369E-18   0.00000000000000E+00   0.00000000000000E+00
      0.00000000000000E+00   0.00000000000000E+00   0.00000000000000E+00   0.00000000000000E+00   0.00000000000000E+00
      4.54642070280328E-18   0.00000000000000E+00   0.00000000000000E+00   0.00000000000000E+00   0.00000000000000E+00
     -1.82238464669414E-19  -1.09366904180198E-33  -1.82238464669415E-19  -1.48741974532319E-17   5.00000000000000E-05
      4.99999990221781E-05   0.00000000000000E+00   0.00000000000000E+00   4.89549754678023E-12   5.48986317491454E-34
      4.89549754678023E-12   4.74806997080490E-18
      2.09333333333333E-03
      0.00000000000000E+00   2.03540129431155E-12   0.00000000000000E+00   0.00000000000000E+00  -1.02320778018635E-11
      5.48683250347712E-34  -1.02320778018635E-11   5.57968888466183E-18   0.00000000000000E+00   0.00000000000000E+00
      0.00000000000000E+00   0.00000000000000E+00   0.00000000000000E+00   0.00000000000000E+00   0.00000000000000E+00
      4.54571152247642E-18   0.00000000000000E+00   0.00000000000000E+00   0.00000000000000E+00   0.00000000000000E+00
      4.03662094410339E-20  -1.12845425605392E-33   4.03662094410327E-20  -1.48741682209270E-17   1.04666666666667E-04
      1.04666664622921E-04   0.00000000000000E+00   0.00000000000000E+00   1.02320777614973E-11   5.79771005706207E-34
      1.02320777614973E-11   4.74876781378868E-18
      3.29600000000000E-03
      0.00000000000000E+00   3.19919440695309E-12   0.00000000000000E+00   0.00000000000000E+00  -1.60825504650745E-11
      5.28830172552613E-34  -1.60825504650745E-11   5.57966920041088E-18   0.00000000000000E+00   0.00000000000000E+00
      0.00000000000000E+00   0.00000000000000E+00   0.00000000000000E+00   0.00000000000000E+00   0.00000000000000E+00
      4.54493143487406E-18   0.00000000000000E+00   0.00000000000000E+00   0.00000000000000E+00   0.00000000000000E+00
     -1.77457892847727E-20  -1.09515985268838E-33  -1.77457892847738E-20  -1.48741360935500E-17   1.64800000000000E-04
      1.64799996787683E-04   0.00000000000000E+00   0.00000000000000E+00   1.60825504828203E-11   5.66329680135768E-34
      1.60825504828203E-11   4.74953545826502E-18
      4.61893333333333E-03
      0.00000000000000E+00   4.47453417211111E-12   0.00000000000000E+00   0.00000000000000E+00  -2.24936994218579E-11
      5.25111631797951E-34  -2.24936994218579E-11   5.57964754798587E-18   0.00000000000000E+00   0.00000000000000E+00
      0.00000000000000E+00   0.00000000000000E+00   0.00000000000000E+00   0.00000000000000E+00   0.00000000000000E+00
      4.54407335151486E-18   0.00000000000000E+00   0.00000000000000E+00   0.00000000000000E+00   0.00000000000000E+00
     -1.01774142240464E-19  -1.09546908196470E-33  -1.01774142240465E-19  -1.48741007874808E-17   2.30946666666667E-04
      2.30946662173782E-04   0.00000000000000E+00   0.00000000000000E+00   2.24936995236320E-11   5.70357450166748E-34
      2.24936995236320E-11   4.75037988798010E-18
      6.07416000000000E-03
      0.00000000000000E+00   5.87146417755262E-12   0.00000000000000E+00   0.00000000000000E+00  -2.95160897518672E-11
      5.31210985581272E-34  -2.95160897518672E-11   5.57962373062241E-18   0.00000000000000E+00   0.00000000000000E+00
      0.00000000000000E+00   0.00000000000000E+00   0.00000000000000E+00   0.00000000000000E+00   0.00000000000000E+00
      4.54312947553681E-18   0.00000000000000E+00   0.00000000000000E+00   0.00000000000000E+00   0.00000000000000E+00
     -1.55114883777484E-20  -1.07947628918668E-33  -1.55114883777495E-20  -1.48740619919652E-17   3.03708000000000E-04
      3.03707994104460E-04   0.00000000000000E+00   0.00000000000000E+00   2.95160897673788E-11   5.48265303605403E-34
      2.95160897673788E-11   4.75130878580600E-18
      7.67490933333333E-03
      0.00000000000000E+00   7.40085461367950E-12   0.00000000000000E+00   0.00000000000000E+00  -3.72042249006209E-11
      5.50594320762175E-34  -3.72042249006209E-11   5.57959753189068E-18   0.00000000000000E+00   0.00000000000000E+00
      0.00000000000000E+00   0.00000000000000E+00   0.00000000000000E+00   0.00000000000000E+00   0.00000000000000E+00
      4.54209123095597E-18   0.00000000000000E+00   0.00000000000000E+00   0.00000000000000E+00   0.00000000000000E+00
      2.52311849211934E-19  -1.12776839118350E-33   2.52311849211933E-19  -1.48740193666562E-17   3.83745466666667E-04
      3.83745459235484E-04   0.00000000000000E+00   0.00000000000000E+00   3.72042246483091E-11   5.77174070421323E-34
      3.72042246483091E-11   4.75233060380957E-18
      9.43573360000000E-03
      0.00000000000000E+00   9.07433643792044E-12   0.00000000000000E+00   0.00000000000000E+00  -4.56166950204315E-11
      5.75710181777765E-34  -4.56166950204315E-11   5.57956871373122E-18   0.00000000000000E+00   0.00000000000000E+00
      0.00000000000000E+00   0.00000000000000E+00   0.00000000000000E+00   0.00000000000000E+00   0.00000000000000E+00
      4.54094918487096E-18   0.00000000000000E+00   0.00000000000000E+00   0.00000000000000E+00   0.00000000000000E+00
     -1.26408025781859E-19  -1.12297773133213E-33  -1.26408025781860E-19  -1.48739725389627E-17   4.71786680000000E-04
      4.71786670888480E-04   0.00000000000000E+00   0.00000000000000E+00   4.56166951468396E-11   5.47267549554365E-34
      4.56166951468396E-11   4.75345464036054E-18
      1.13726402933333E-02
      0.00000000000000E+00   1.09044094751738E-11   0.00000000000000E+00   0.00000000000000E+00  -5.48163018449985E-11
      5.37813815059479E-34  -5.48163018449985E-11   5.57953701429466E-18   0.00000000000000E+00   0.00000000000000E+00
      0.00000000000000E+00   0.00000000000000E+00   0.00000000000000E+00   0.00000000000000E+00   0.00000000000000E+00
      4.53969296191201E-18   0.00000000000000E+00   0.00000000000000E+00   0.00000000000000E+00   0.00000000000000E+00
      2.75186940480980E-19  -1.09030014234858E-33   2.75186940480978E-19  -1.48739211011963E-17   5.68632014666667E-04
      5.68632003717579E-04   0.00000000000000E+00   0.00000000000000E+00   5.48163015698116E-11   5.52486327289097E-34
      5.48163015698116E-11   4.75469112498970E-18
      1.35032376560000E-02
      0.00000000000000E+00   1.29044481073046E-11   0.00000000000000E+00   0.00000000000000E+00  -6.48701372245735E-11
      5.33085332104463E-34  -6.48701372245735E-11   5.57950214556611E-18   0.00000000000000E+00   0.00000000000000E+00
      0.00000000000000E+00   0.00000000000000E+00   0.00000000000000E+00   0.00000000000000E+00   0.00000000000000E+00
      4.53831115016392E-18   0.00000000000000E+00   0.00000000000000E+00   0.00000000000000E+00   0.00000000000000E+00
     -8.13037125993061E-20  -1.10080886272524E-33  -8.13037125993072E-20  -1.48738646075099E-17   6.75161882800000E-04
      6.75161869842696E-04   0.00000000000000E+00   0.00000000000000E+00   6.48701373058772E-11   5.67723530620772E-34
      6.48701373058772E-11   4.75605131177989E-18
      1.58468947549333E-02
      0.00000000000000E+00   1.50886557571686E-11   0.00000000000000E+00   0.00000000000000E+00  -7.58496204078038E-11
      5.51104267222263E-34  -7.58496204078038E-11   5.57946379075264E-18   0.00000000000000E+00   0.00000000000000E+00
      0.00000000000000E+00   0.00000000000000E+00   0.00000000000000E+00   0.00000000000000E+00   0.00000000000000E+00
      4.53679119771338E-18   0.00000000000000E+00   0.00000000000000E+00   0.00000000000000E+00   0.00000000000000E+00
      2.30128076659710E-19  -1.12253984143392E-33   2.30128076659709E-19  -1.48738025706179E-17   7.92344737746667E-04
      7.92344722596229E-04   0.00000000000000E+00   0.00000000000000E+00   7.58496201776758E-11   5.71435574211660E-34
      7.58496201776758E-11   4.75754758215186E-18
      1.84249175637600E-02
      0.00000000000000E+00   1.74720835826739E-11   0.00000000000000E+00   0.00000000000000E+00  -8.78304484214589E-11
      5.04035542018076E-34  -8.78304484214589E-11   5.57942160141019E-18   0.00000000000000E+00   0.00000000000000E+00
      0.00000000000000E+00   0.00000000000000E+00   0.00000000000000E+00   0.00000000000000E+00   0.00000000000000E+00
      4.53511929889538E-18   0.00000000000000E+00   0.00000000000000E+00   0.00000000000000E+00   0.00000000000000E+00
      4.03677562225682E-19  -1.06927893617017E-33   4.03677562225681E-19  -1.48737344583037E-17   9.21245878188001E-04
      9.21245860644387E-04   0.00000000000000E+00   0.00000000000000E+00   8.78304480177813E-11   5.65243394152100E-34
      8.78304480177813E-11   4.75919355799816E-18
      2.12607426534693E-02
      0.00000000000000E+00   2.00706572986951E-11   0.00000000000000E+00   0.00000000000000E+00  -1.00892463218743E-10
      5.24464434851738E-34  -1.00892463218743E-10   5.57937519428427E-18   0.00000000000000E+00   0.00000000000000E+00
      0.00000000000000E+00   0.00000000000000E+00   0.00000000000000E+00   0.00000000000000E+00   0.00000000000000E+00
      4.53328026921347E-18   0.00000000000000E+00   0.00000000000000E+00   0.00000000000000E+00   0.00000000000000E+00
      4.44282995489160E-19  -1.07185748601085E-33   4.44282995489159E-19  -1.48736596897097E-17   1.06303713267347E-03
      1.06303711252068E-03   0.00000000000000E+00   0.00000000000000E+00   1.00892462774461E-10   5.47393051159107E-34
      1.00892462774461E-10   4.76100422621195E-18
      2.43801502521496E-02
      0.00000000000000E+00   2.29010219350843E-11   0.00000000000000E+00   0.00000000000000E+00  -1.15119402530118E-10
      5.61594606056543E-34  -1.15119402530118E-10   5.57932414783590E-18   0.00000000000000E+00   0.00000000000000E+00
      0.00000000000000E+00   0.00000000000000E+00   0.00000000000000E+00   0.00000000000000E+00   0.00000000000000E+00
      4.53125740781047E-18   0.00000000000000E+00   0.00000000000000E+00   0.00000000000000E+00   0.00000000000000E+00
      5.90709536710382E-19  -1.10298852287591E-33   5.90709536710381E-19  -1.48735776314135E-17   1.21900751260748E-03
      1.21900748961278E-03   0.00000000000000E+00   0.00000000000000E+00   1.15119401939408E-10   5.41393916819363E-34
      1.15119401939408E-10   4.76299607576708E-18
      2.78114986106979E-02
      0.00000000000000E+00   2.59805621563029E-11   0.00000000000000E+00   0.00000000000000E+00  -1.30598505646639E-10
      5.16729157597976E-34  -1.30598505646639E-10   5.57926799842143E-18   0.00000000000000E+00   0.00000000000000E+00
      0.00000000000000E+00   0.00000000000000E+00   0.00000000000000E+00   0.00000000000000E+00   0.00000000000000E+00
      4.52903234625889E-18   0.00000000000000E+00   0.00000000000000E+00   0.00000000000000E+00   0.00000000000000E+00
      1.49952949720091E-18  -1.06704482474001E-33   1.49952949720091E-18  -1.48734875933058E-17   1.39057493053490E-03
      1.39057490444810E-03   0.00000000000000E+00   0.00000000000000E+00   1.30598504147109E-10   5.50315667142031E-34
      1.30598504147109E-10   4.76518724862547E-18
      3.15859818051010E-02
      0.00000000000000E+00   2.93272380787938E-11   0.00000000000000E+00   0.00000000000000E+00  -1.47419950065367E-10
      5.52568836727353E-34  -1.47419950065367E-10   5.57920623609211E-18   0.00000000000000E+00   0.00000000000000E+00
      0.00000000000000E+00   0.00000000000000E+00   0.00000000000000E+00   0.00000000000000E+00   0.00000000000000E+00
      4.52658488231279E-18   0.00000000000000E+00   0.00000000000000E+00   0.00000000000000E+00   0.00000000000000E+00
      1.43872299585561E-18  -1.08926958726348E-33   1.43872299585561E-18  -1.48733888242812E-17   1.57929909025505E-03
      1.57929906080795E-03   0.00000000000000E+00   0.00000000000000E+00   1.47419948626644E-10   5.36700750536125E-34
      1.47419948626644E-10   4.76759770587636E-18
      3.57379133189445E-02
      0.00000000000000E+00   3.29594422207720E-11   0.00000000000000E+00   0.00000000000000E+00  -1.65676082139358E-10
      5.60288025834359E-34  -1.65676082139358E-10   5.57913829997536E-18   0.00000000000000E+00   0.00000000000000E+00
      0.00000000000000E+00   0.00000000000000E+00   0.00000000000000E+00   0.00000000000000E+00   0.00000000000000E+00
      4.52389279713824E-18   0.00000000000000E+00   0.00000000000000E+00   0.00000000000000E+00   0.00000000000000E+00
      2.27085053633114E-18  -1.11146229298041E-33   2.27085053633114E-18  -1.48732805077746E-17   1.78689566594722E-03
      1.78689563285314E-03   0.00000000000000E+00   0.00000000000000E+00   1.65676079868508E-10   5.51174267146052E-34
      1.65676079868508E-10   4.77024941066105E-18
      4.03050379841723E-02
      0.00000000000000E+00   3.68957898036203E-11   0.00000000000000E+00   0.00000000000000E+00  -1.85460384924822E-10
      5.29826794357369E-34  -1.85460384924822E-10   5.57906357319685E-18   0.00000000000000E+00   0.00000000000000E+00
      0.00000000000000E+00   0.00000000000000E+00   0.00000000000000E+00   0.00000000000000E+00   0.00000000000000E+00
      4.52093165438908E-18   0.00000000000000E+00   0.00000000000000E+00   0.00000000000000E+00   0.00000000000000E+00
      3.12068297717375E-18  -1.06335314886458E-33   3.12068297717375E-18  -1.48731617571813E-17   2.01525189920861E-03
      2.01525186216217E-03   0.00000000000000E+00   0.00000000000000E+00   1.85460381804139E-10   5.33526354507214E-34
      1.85460381804139E-10   4.77316652959537E-18
      4.53288751159228E-02
      0.00000000000000E+00   4.11548927975804E-11   0.00000000000000E+00   0.00000000000000E+00  -2.06866169356660E-10
      5.44226855754228E-34  -2.06866169356660E-10   5.57898137729730E-18   0.00000000000000E+00   0.00000000000000E+00
      0.00000000000000E+00   0.00000000000000E+00   0.00000000000000E+00   0.00000000000000E+00   0.00000000000000E+00
      4.51767457933243E-18   0.00000000000000E+00   0.00000000000000E+00   0.00000000000000E+00   0.00000000000000E+00
      4.95283335312362E-18  -1.07086026820162E-33   4.95283335312362E-18  -1.48730316112087E-17   2.26644375579614E-03
      2.26644371447329E-03   0.00000000000000E+00   0.00000000000000E+00   2.06866164403827E-10   5.26633412447390E-34
      2.06866164403827E-10   4.77637565457896E-18
      5.08550959608485E-02
      0.00000000000000E+00   4.57549868533070E-11   0.00000000000000E+00   0.00000000000000E+00  -2.29984914476301E-10
      5.76707037274531E-34  -2.29984914476301E-10   5.57889096609424E-18   0.00000000000000E+00   0.00000000000000E+00
      0.00000000000000E+00   0.00000000000000E+00   0.00000000000000E+00   0.00000000000000E+00   0.00000000000000E+00
      4.51409201605911E-18   0.00000000000000E+00   0.00000000000000E+00   0.00000000000000E+00   0.00000000000000E+00
      7.38058521868358E-18  -1.09602082328193E-33   7.38058521868358E-18  -1.48728890292329E-17   2.54275479804242E-03
      2.54275475210080E-03   0.00000000000000E+00   0.00000000000000E+00   2.29984907095716E-10   5.19313786007396E-34
      2.29984907095716E-10   4.77990604707953E-18
      5.69339388902666E-02
      0.00000000000000E+00   5.07135484799988E-11   0.00000000000000E+00   0.00000000000000E+00  -2.54904220563572E-10
      5.42890852781433E-34  -2.54904220563572E-10   5.57879151893410E-18   0.00000000000000E+00   0.00000000000000E+00
      0.00000000000000E+00   0.00000000000000E+00   0.00000000000000E+00   0.00000000000000E+00   0.00000000000000E+00
      4.51015146062072E-18   0.00000000000000E+00   0.00000000000000E+00   0.00000000000000E+00   0.00000000000000E+00
      1.05035313056364E-17  -1.08596448771029E-33   1.05035313056364E-17  -1.48727328867519E-17   2.84669694451333E-03
      2.84669689359306E-03   0.00000000000000E+00   0.00000000000000E+00   2.54904210060041E-10   5.43073634928862E-34
      2.54904210060041E-10   4.78378990719704E-18
      6.36206661126266E-02
      0.00000000000000E+00   5.60467976208036E-11   0.00000000000000E+00   0.00000000000000E+00  -2.81705354838914E-10
      5.55728310797488E-34  -2.81705354838914E-10   5.57868213327346E-18   0.00000000000000E+00   0.00000000000000E+00
      0.00000000000000E+00   0.00000000000000E+00   0.00000000000000E+00   0.00000000000000E+00   0.00000000000000E+00
      4.50581716771027E-18   0.00000000000000E+00   0.00000000000000E+00   0.00000000000000E+00   0.00000000000000E+00
      1.58878997111828E-17  -1.07025180541292E-33   1.58878997111828E-17  -1.48725619710352E-17   3.18103330563133E-03
      3.18103324935621E-03   0.00000000000000E+00   0.00000000000000E+00   2.81705338951015E-10   5.14523494615433E-34
      2.81705338951015E-10   4.78806267005146E-18
      7.09760660572226E-02
      0.00000000000000E+00   6.17691335798309E-11   0.00000000000000E+00   0.00000000000000E+00  -3.10460267360289E-10
      5.56771602636443E-34  -3.10460267360289E-10   5.57856181652441E-18   0.00000000000000E+00   0.00000000000000E+00
      0.00000000000000E+00   0.00000000000000E+00   0.00000000000000E+00   0.00000000000000E+00   0.00000000000000E+00
      4.50104982830612E-18   0.00000000000000E+00   0.00000000000000E+00   0.00000000000000E+00   0.00000000000000E+00
      2.24800622334651E-17  -1.05355873646422E-33   2.24800622334651E-17  -1.48723749771386E-17   3.54880330286113E-03
      3.54880324084055E-03   0.00000000000000E+00   0.00000000000000E+00   3.10460244880227E-10   4.96787133827776E-34
      3.10460244880227E-10   4.79276333230814E-18
      7.90670059962782E-02
      0.00000000000000E+00   6.78923726295543E-11   0.00000000000000E+00   0.00000000000000E+00  -3.41228122979115E-10
      5.65830306736262E-34  -3.41228122979115E-10   5.57842947709021E-18   0.00000000000000E+00   0.00000000000000E+00
      0.00000000000000E+00   0.00000000000000E+00   0.00000000000000E+00   0.00000000000000E+00   0.00000000000000E+00
      4.49580621541205E-18   0.00000000000000E+00   0.00000000000000E+00   0.00000000000000E+00   0.00000000000000E+00
      3.33314700423351E-17  -1.06615960812147E-33   3.33314700423351E-17  -1.48721705044554E-17   3.95335029981391E-03
      3.95335023164537E-03   0.00000000000000E+00   0.00000000000000E+00   3.41228089647645E-10   5.00329301385206E-34
      3.41228089647645E-10   4.79793481195318E-18
      8.79670399292394E-02
      0.00000000000000E+00   7.44250392620432E-11   0.00000000000000E+00   0.00000000000000E+00  -3.74051272213109E-10
      5.71331535591917E-34  -3.74051272213109E-10   5.57828391451194E-18   0.00000000000000E+00   0.00000000000000E+00
      0.00000000000000E+00   0.00000000000000E+00   0.00000000000000E+00   0.00000000000000E+00   0.00000000000000E+00
      4.49003879476036E-18   0.00000000000000E+00   0.00000000000000E+00   0.00000000000000E+00   0.00000000000000E+00
      4.83991210819910E-17  -1.07309064435225E-33   4.83991210819910E-17  -1.48719470540228E-17   4.39835199646197E-03
      4.39835192173444E-03   0.00000000000000E+00   0.00000000000000E+00   3.74051223813988E-10   5.01759108760331E-34
      3.74051223813988E-10   4.80362434475043E-18
      9.77570772554967E-02
      0.00000000000000E+00   8.13714038511850E-11   0.00000000000000E+00   0.00000000000000E+00  -4.08950681320971E-10
      5.62859797064382E-34  -4.08950681320971E-10   5.57812380863805E-18   0.00000000000000E+00   0.00000000000000E+00
      0.00000000000000E+00   0.00000000000000E+00   0.00000000000000E+00   0.00000000000000E+00   0.00000000000000E+00
      4.48369529704524E-18   0.00000000000000E+00   0.00000000000000E+00   0.00000000000000E+00   0.00000000000000E+00
      6.97566595755365E-17  -1.04917489226911E-33   6.97566595755365E-17  -1.48717030268642E-17   4.88785386277484E-03
      4.88785378107300E-03   0.00000000000000E+00   0.00000000000000E+00   4.08950611564312E-10   4.86315095204728E-34
      4.08950611564312E-10   4.80988392118092E-18
      1.07757077255497E-01
      0.00000000000000E+00   8.82144878141590E-11   0.00000000000000E+00   0.00000000000000E+00  -4.43329061413839E-10
      5.27033890505915E-34  -4.43329061413839E-10   5.57796028294022E-18   0.00000000000000E+00   0.00000000000000E+00
      0.00000000000000E+00   0.00000000000000E+00   0.00000000000000E+00   0.00000000000000E+00   0.00000000000000E+00
      4.47721646685255E-18   0.00000000000000E+00   0.00000000000000E+00   0.00000000000000E+00   0.00000000000000E+00
      7.94468888565598E-17  -1.00081425075373E-33   7.94468888565598E-17  -1.48714556674318E-17   5.38785386277483E-03
      5.38785377420238E-03   0.00000000000000E+00   0.00000000000000E+00   4.43328981966950E-10   4.73780360247810E-34
      4.43328981966950E-10   4.81627891763901E-18
      1.17757077255497E-01
      0.00000000000000E+00   9.48100055071681E-11   0.00000000000000E+00   0.00000000000000E+00  -4.76461142439496E-10
      5.42600781259199E-34  -4.76461142439496E-10   5.57779677115837E-18   0.00000000000000E+00   0.00000000000000E+00
      0.00000000000000E+00   0.00000000000000E+00   0.00000000000000E+00   0.00000000000000E+00   0.00000000000000E+00
      4.47073835227874E-18   0.00000000000000E+00   0.00000000000000E+00   0.00000000000000E+00   0.00000000000000E+00
      7.98162740217117E-17  -1.00682009481872E-33   7.98162740217117E-17  -1.48712102176784E-17   5.88785386277483E-03
      5.88785376758041E-03   0.00000000000000E+00   0.00000000000000E+00   4.76461062623222E-10   4.64219313559523E-34
      4.76461062623222E-10   4.82267509424130E-18
      1.27757077255497E-01
      0.00000000000000E+00   1.01165165522905E-10   0.00000000000000E+00   0.00000000000000E+00  -5.08383663597210E-10
      5.22460520267222E-34  -5.08383663597210E-10   5.57763327316257E-18   0.00000000000000E+00   0.00000000000000E+00
      0.00000000000000E+00   0.00000000000000E+00   0.00000000000000E+00   0.00000000000000E+00   0.00000000000000E+00
      4.46426094763623E-18   0.00000000000000E+00   0.00000000000000E+00   0.00000000000000E+00   0.00000000000000E+00
      9.51201179175653E-17  -9.85972709637824E-34   9.51201179175653E-17  -1.48709666658669E-17   6.38785386277483E-03
      6.38785376119981E-03   0.00000000000000E+00   0.00000000000000E+00   5.08383568477092E-10   4.63512189370603E-34
      5.08383568477092E-10   4.82907244506809E-18
      1.37757077255497E-01
      0.00000000000000E+00   1.07287174015707E-10   0.00000000000000E+00   0.00000000000000E+00  -5.39132897087651E-10
      5.36328540109524E-34  -5.39132897087651E-10   5.57746978882388E-18   0.00000000000000E+00   0.00000000000000E+00
      0.00000000000000E+00   0.00000000000000E+00   0.00000000000000E+00   0.00000000000000E+00   0.00000000000000E+00
      4.45778424731504E-18   0.00000000000000E+00   0.00000000000000E+00   0.00000000000000E+00   0.00000000000000E+00
      6.49121197303271E-17  -9.79447113361426E-34   6.49121197303271E-17  -1.48707250003838E-17   6.88785386277483E-03
      6.88785375505331E-03   0.00000000000000E+00   0.00000000000000E+00   5.39132832175531E-10   4.43118573251902E-34
      5.39132832175531E-10   4.83547096424484E-18
      1.47757077255497E-01
      0.00000000000000E+00   1.13183159925309E-10   0.00000000000000E+00   0.00000000000000E+00  -5.68744888125816E-10
      5.69124077163255E-34  -5.68744888125816E-10   5.57730631801158E-18   0.00000000000000E+00   0.00000000000000E+00
      0.00000000000000E+00   0.00000000000000E+00   0.00000000000000E+00   0.00000000000000E+00   0.00000000000000E+00
      4.45130824566660E-18   0.00000000000000E+00   0.00000000000000E+00   0.00000000000000E+00   0.00000000000000E+00
      7.62929189036766E-17  -9.99235733186327E-34   7.62929189036766E-17  -1.48704852095749E-17   7.38785386277483E-03
      7.38785374913378E-03   0.00000000000000E+00   0.00000000000000E+00   5.68744811832898E-10   4.30111656023072E-34
      5.68744811832898E-10   4.84187064589669E-18
      1.57757077255497E-01
      0.00000000000000E+00   1.18860114830732E-10   0.00000000000000E+00   0.00000000000000E+00  -5.97254990205090E-10
      5.24687273765683E-34  -5.97254990205090E-10   5.57714286059627E-18   0.00000000000000E+00   0.00000000000000E+00
      0.00000000000000E+00   0.00000000000000E+00   0.00000000000000E+00   0.00000000000000E+00   0.00000000000000E+00
      4.44483293713592E-18   0.00000000000000E+00   0.00000000000000E+00   0.00000000000000E+00   0.00000000000000E+00
      7.54164238458912E-17  -9.55077099542951E-34   7.54164238458912E-17  -1.48702472819336E-17   7.88785386277484E-03
      7.88785374343418E-03   0.00000000000000E+00   0.00000000000000E+00   5.97254914788666E-10   4.30389825777268E-34
      5.97254914788666E-10   4.84827148420140E-18
      1.67757077255497E-01
      0.00000000000000E+00   1.24324927087268E-10   0.00000000000000E+00   0.00000000000000E+00  -6.24697953721112E-10
      5.46221150030818E-34  -6.24697953721112E-10   5.57697941644901E-18   0.00000000000000E+00   0.00000000000000E+00
      0.00000000000000E+00   0.00000000000000E+00   0.00000000000000E+00   0.00000000000000E+00   0.00000000000000E+00
      4.43835831621669E-18   0.00000000000000E+00   0.00000000000000E+00   0.00000000000000E+00   0.00000000000000E+00
      7.45269501498092E-17  -9.70908043445436E-34   7.45269501498092E-17  -1.48700112060376E-17   8.38785386277484E-03
      8.38785373794759E-03   0.00000000000000E+00   0.00000000000000E+00   6.24697879194162E-10   4.24686893414617E-34
      6.24697879194162E-10   4.85467347337193E-18
      1.77757077255497E-01
      0.00000000000000E+00   1.29584350127849E-10   0.00000000000000E+00   0.00000000000000E+00  -6.51107850514559E-10
      5.60077595542299E-34  -6.51107850514559E-10   5.57681598544145E-18   0.00000000000000E+00   0.00000000000000E+00
      0.00000000000000E+00   0.00000000000000E+00   0.00000000000000E+00   0.00000000000000E+00   0.00000000000000E+00
      4.43188437745632E-18   0.00000000000000E+00   0.00000000000000E+00   0.00000000000000E+00   0.00000000000000E+00
      7.35891117930033E-17  -9.71380132406468E-34   7.35891117930033E-17  -1.48697769705554E-17   8.88785386277484E-03
      8.88785373266723E-03   0.00000000000000E+00   0.00000000000000E+00   6.51107776925447E-10   4.11302536864168E-34
      6.51107776925447E-10   4.86107660765763E-18
      1.87757077255497E-01
      0.00000000000000E+00   1.34644991084057E-10   0.00000000000000E+00   0.00000000000000E+00  -6.76518083201637E-10
      5.25673364651230E-34  -6.76518083201637E-10   5.57665256744564E-18   0.00000000000000E+00   0.00000000000000E+00
      0.00000000000000E+00   0.00000000000000E+00   0.00000000000000E+00   0.00000000000000E+00   0.00000000000000E+00
      4.42541111543124E-18   0.00000000000000E+00   0.00000000000000E+00   0.00000000000000E+00   0.00000000000000E+00
      7.15276274950409E-17  -9.36029683169104E-34   7.15276274950409E-17  -1.48695445642147E-17   9.38785386277484E-03
      9.38785372758646E-03   0.00000000000000E+00   0.00000000000000E+00   6.76518011674010E-10   4.10356318517874E-34
      6.76518011674010E-10   4.86748088133781E-18
      1.97757077255497E-01
      0.00000000000000E+00   1.39513318913976E-10   0.00000000000000E+00   0.00000000000000E+00  -7.00961306570814E-10