DF-ISE text

Info {
  version   = 1.0
  type      = xyplot
  datasets  = [
    "time"
    "source OuterVoltage" "source InnerVoltage" "source QuasiFermiPotential" "source DisplacementCurrent" "source eCurrent"
    "source hCurrent" "source TotalCurrent" "source Charge" "gate OuterVoltage" "gate InnerVoltage"
    "gate QuasiFermiPotential" "gate DisplacementCurrent" "gate eCurrent" "gate hCurrent" "gate TotalCurrent"
    "gate Charge" "substrate OuterVoltage" "substrate InnerVoltage" "substrate QuasiFermiPotential" "substrate DisplacementCurrent"
    "substrate eCurrent" "substrate hCurrent" "substrate TotalCurrent" "substrate Charge" "drain OuterVoltage"
    "drain InnerVoltage" "drain QuasiFermiPotential" "drain DisplacementCurrent" "drain eCurrent" "drain hCurrent"
    "drain TotalCurrent" "drain Charge" ]
  functions = [
    Time
    OuterVoltage InnerVoltage QuasiFermiPotential DisplacementCurrent eCurrent
    hCurrent TotalCurrent Charge OuterVoltage InnerVoltage
    QuasiFermiPotential DisplacementCurrent eCurrent hCurrent TotalCurrent
    Charge OuterVoltage InnerVoltage QuasiFermiPotential DisplacementCurrent
    eCurrent hCurrent TotalCurrent Charge OuterVoltage
    InnerVoltage QuasiFermiPotential DisplacementCurrent eCurrent hCurrent
    TotalCurrent Charge ]
}

Data {
      0.00000000000000E+00
      0.00000000000000E+00   0.00000000000000E+00   0.00000000000000E+00   0.00000000000000E+00   4.86342264571441E-22
     -1.10093106700822E-34   4.86342264571331E-22   4.23424573365405E-18   0.00000000000000E+00   0.00000000000000E+00
      0.00000000000000E+00   0.00000000000000E+00   0.00000000000000E+00   0.00000000000000E+00   0.00000000000000E+00
      2.65683792941857E-18   0.00000000000000E+00   0.00000000000000E+00   0.00000000000000E+00   0.00000000000000E+00
     -1.22358550159239E-23   3.45650523716478E-34  -1.22358550155782E-23  -1.04160447516407E-17   0.00000000000000E+00
      0.00000000000000E+00   0.00000000000000E+00   0.00000000000000E+00  -4.74106409555516E-22  -2.35557417015655E-34
     -4.74106409555751E-22   3.52496108856808E-18
      0.00000000000000E+00
      0.00000000000000E+00   0.00000000000000E+00   0.00000000000000E+00   0.00000000000000E+00  -2.25446798591549E-20
     -1.35371089546866E-34  -2.25446798591550E-20   4.23223783641945E-18   0.00000000000000E+00   0.00000000000000E+00
      0.00000000000000E+00   0.00000000000000E+00   0.00000000000000E+00   0.00000000000000E+00   0.00000000000000E+00
      2.65080619257990E-18   0.00000000000000E+00   0.00000000000000E+00   0.00000000000000E+00   0.00000000000000E+00
      3.26557136848260E-20   3.87504256566583E-34   3.26557136848264E-20  -1.04065437301580E-17   0.00000000000000E+00
      0.00000000000000E+00   0.00000000000000E+00   0.00000000000000E+00  -1.01110338256711E-20  -2.52133167019716E-34
     -1.01110338256714E-20   3.52349970115866E-18
      1.00000000000000E-03
      0.00000000000000E+00   2.00865184959919E-12   0.00000000000000E+00   0.00000000000000E+00  -8.90703160780331E-12
     -1.43107798121440E-34  -8.90703160780331E-12   4.23221946097336E-18   0.00000000000000E+00   0.00000000000000E+00
      0.00000000000000E+00   0.00000000000000E+00   0.00000000000000E+00   0.00000000000000E+00   0.00000000000000E+00
      2.65030283864866E-18   0.00000000000000E+00   0.00000000000000E+00   0.00000000000000E+00   0.00000000000000E+00
     -1.18875243450078E-19   3.94331432711977E-34  -1.18875243450078E-19  -1.04065263438745E-17   5.00000000000000E-05
      4.99999979760223E-05   0.00000000000000E+00   0.00000000000000E+00   8.90703172667855E-12  -2.51223634590536E-34
      8.90703172667855E-12   3.52400404425244E-18
      2.09333333333333E-03
      0.00000000000000E+00   4.19799539448819E-12   0.00000000000000E+00   0.00000000000000E+00  -1.86153017033129E-11
     -1.29414074487746E-34  -1.86153017033129E-11   4.23219937075958E-18   0.00000000000000E+00   0.00000000000000E+00
      0.00000000000000E+00   0.00000000000000E+00   0.00000000000000E+00   0.00000000000000E+00   0.00000000000000E+00
      2.64975251362724E-18   0.00000000000000E+00   0.00000000000000E+00   0.00000000000000E+00   0.00000000000000E+00
      2.84640179215834E-20   3.64957830407286E-34   2.84640179215838E-20  -1.04065073553853E-17   1.04666666666667E-04
      1.04666662436648E-04   0.00000000000000E+00   0.00000000000000E+00   1.86153016748489E-11  -2.35543755919540E-34
      1.86153016748489E-11   3.52455547099845E-18
      3.29600000000000E-03
      0.00000000000000E+00   6.59777095349087E-12   0.00000000000000E+00   0.00000000000000E+00  -2.92566794095341E-11
     -1.39289475702596E-34  -2.92566794095341E-11   4.23217727185663E-18   0.00000000000000E+00   0.00000000000000E+00
      0.00000000000000E+00   0.00000000000000E+00   0.00000000000000E+00   0.00000000000000E+00   0.00000000000000E+00
      2.64914716648297E-18   0.00000000000000E+00   0.00000000000000E+00   0.00000000000000E+00   0.00000000000000E+00
     -1.45784462565856E-20   3.87288221566017E-34  -1.45784462565852E-20  -1.04064864927789E-17   1.64800000000000E-04
      1.64799993351916E-04   0.00000000000000E+00   0.00000000000000E+00   2.92566794241125E-11  -2.47998745863422E-34
      2.92566794241125E-11   3.52516205443928E-18
      4.61893333333333E-03
      0.00000000000000E+00   9.22702100212158E-12   0.00000000000000E+00   0.00000000000000E+00  -4.09155802934856E-11
     -1.19967827858050E-34  -4.09155802934856E-11   4.23215296346638E-18   0.00000000000000E+00   0.00000000000000E+00
      0.00000000000000E+00   0.00000000000000E+00   0.00000000000000E+00   0.00000000000000E+00   0.00000000000000E+00
      2.64848129717110E-18   0.00000000000000E+00   0.00000000000000E+00   0.00000000000000E+00   0.00000000000000E+00
      1.88040822129277E-20   3.80490750712047E-34   1.88040822129281E-20  -1.04064635738125E-17   2.30946666666667E-04
      2.30946657369289E-04   0.00000000000000E+00   0.00000000000000E+00   4.09155802746816E-11  -2.60522922853997E-34
      4.09155802746816E-11   3.52582931317499E-18
      6.07416000000000E-03
      0.00000000000000E+00   1.21062964209031E-11   0.00000000000000E+00   0.00000000000000E+00  -5.36831407301495E-11
     -9.95168185657051E-35  -5.36831407301495E-11   4.23212622472555E-18   0.00000000000000E+00   0.00000000000000E+00
      0.00000000000000E+00   0.00000000000000E+00   0.00000000000000E+00   0.00000000000000E+00   0.00000000000000E+00
      2.64774885609353E-18   0.00000000000000E+00   0.00000000000000E+00   0.00000000000000E+00   0.00000000000000E+00
      1.05750179602727E-20   3.70621010829485E-34   1.05750179602730E-20  -1.04064383990965E-17   3.03708000000000E-04
      3.03707987801408E-04   0.00000000000000E+00   0.00000000000000E+00   5.36831407195744E-11  -2.71104192263780E-34
      5.36831407195744E-11   3.52656331827747E-18
      7.67490933333333E-03
      0.00000000000000E+00   1.52577185526213E-11   0.00000000000000E+00   0.00000000000000E+00  -6.76574588189355E-11
     -1.28681356313277E-34  -6.76574588189355E-11   4.23209681270221E-18   0.00000000000000E+00   0.00000000000000E+00
      0.00000000000000E+00   0.00000000000000E+00   0.00000000000000E+00   0.00000000000000E+00   0.00000000000000E+00
      2.64694318923689E-18   0.00000000000000E+00   0.00000000000000E+00   0.00000000000000E+00   0.00000000000000E+00
      4.70795919342716E-20   3.53943244877387E-34   4.70795919342719E-20  -1.04064107506039E-17   3.83745466666667E-04
      3.83745451292649E-04   0.00000000000000E+00   0.00000000000000E+00   6.76574587718559E-11  -2.25261888564110E-34
      6.76574587718559E-11   3.52737074866476E-18
      9.43573360000000E-03
      0.00000000000000E+00   1.87050429144405E-11   0.00000000000000E+00   0.00000000000000E+00  -8.29438178735365E-11
     -1.68492447803974E-34  -8.29438178735365E-11   4.23206446019276E-18   0.00000000000000E+00   0.00000000000000E+00
      0.00000000000000E+00   0.00000000000000E+00   0.00000000000000E+00   0.00000000000000E+00   0.00000000000000E+00
      2.64605697784322E-18   0.00000000000000E+00   0.00000000000000E+00   0.00000000000000E+00   0.00000000000000E+00
      6.05184532427129E-20   4.08295852805845E-34   6.05184532427133E-20  -1.04063803900748E-17   4.71786680000000E-04
      4.71786661152410E-04   0.00000000000000E+00   0.00000000000000E+00   8.29438178130181E-11  -2.39803405001871E-34
      8.29438178130181E-11   3.52825895203884E-18
      1.13726402933333E-02
      0.00000000000000E+00   2.24736691270639E-11   0.00000000000000E+00   0.00000000000000E+00  -9.96548529961932E-11
     -1.46451072110258E-34  -9.96548529961932E-11   4.23202887329908E-18   0.00000000000000E+00   0.00000000000000E+00
      0.00000000000000E+00   0.00000000000000E+00   0.00000000000000E+00   0.00000000000000E+00   0.00000000000000E+00
      2.64508217207149E-18   0.00000000000000E+00   0.00000000000000E+00   0.00000000000000E+00   0.00000000000000E+00
      7.90449564092384E-20   4.04463528526432E-34   7.90449564092388E-20  -1.04063470573200E-17   5.68632014666667E-04
      5.68631992021755E-04   0.00000000000000E+00   0.00000000000000E+00   9.96548529171482E-11  -2.58012456416173E-34
      9.96548529171482E-11   3.52923601194940E-18
      1.35032376560000E-02
      0.00000000000000E+00   2.65906905605376E-11   0.00000000000000E+00   0.00000000000000E+00  -1.17910636757908E-10
     -1.81967351813414E-34  -1.17910636757908E-10   4.23198972876470E-18   0.00000000000000E+00   0.00000000000000E+00
      0.00000000000000E+00   0.00000000000000E+00   0.00000000000000E+00   0.00000000000000E+00   0.00000000000000E+00
      2.64400991805251E-18   0.00000000000000E+00   0.00000000000000E+00   0.00000000000000E+00   0.00000000000000E+00
      1.20245265851079E-19   4.23992573012051E-34   1.20245265851079E-19  -1.04063104684189E-17   6.75161882800000E-04
      6.75161856006749E-04   0.00000000000000E+00   0.00000000000000E+00   1.17910636637662E-10  -2.42025221198637E-34
      1.17910636637662E-10   3.53031082160165E-18
      1.58468947549333E-02
      0.00000000000000E+00   3.10848595821881E-11   0.00000000000000E+00   0.00000000000000E+00  -1.37838654648595E-10
     -1.28493100644503E-34  -1.37838654648595E-10   4.23194667104510E-18   0.00000000000000E+00   0.00000000000000E+00
      0.00000000000000E+00   0.00000000000000E+00   0.00000000000000E+00   0.00000000000000E+00   0.00000000000000E+00
      2.64283047768268E-18   0.00000000000000E+00   0.00000000000000E+00   0.00000000000000E+00   0.00000000000000E+00
      1.82457257647050E-18   3.70262262546750E-34   1.82457257647050E-18  -1.04062703138190E-17   7.92344737746667E-04
      7.92344706425074E-04   0.00000000000000E+00   0.00000000000000E+00   1.37838652824022E-10  -2.41769161902248E-34
      1.37838652824022E-10   3.53149316509118E-18
      1.84249175637600E-02
      0.00000000000000E+00   3.59865685257303E-11   0.00000000000000E+00   0.00000000000000E+00  -1.59573626642057E-10
     -1.17874279387560E-34  -1.59573626642057E-10   4.23189930908700E-18   0.00000000000000E+00   0.00000000000000E+00
      0.00000000000000E+00   0.00000000000000E+00   0.00000000000000E+00   0.00000000000000E+00   0.00000000000000E+00
      2.64153314043726E-18   0.00000000000000E+00   0.00000000000000E+00   0.00000000000000E+00   0.00000000000000E+00
      2.19506776798821E-19   3.63782912277873E-34   2.19506776798821E-19  -1.04062262563420E-17   9.21245878188001E-04
      9.21245841927433E-04   0.00000000000000E+00   0.00000000000000E+00   1.59573626422550E-10  -2.45908632890312E-34
      1.59573626422550E-10   3.53279380681770E-18
      2.12607426534693E-02
      0.00000000000000E+00   4.13277578465307E-11   0.00000000000000E+00   0.00000000000000E+00  -1.83257171724476E-10
     -1.50767238899310E-34  -1.83257171724476E-10   4.23184721278653E-18   0.00000000000000E+00   0.00000000000000E+00
      0.00000000000000E+00   0.00000000000000E+00   0.00000000000000E+00   0.00000000000000E+00   0.00000000000000E+00
      2.64010612641237E-18   0.00000000000000E+00   0.00000000000000E+00   0.00000000000000E+00   0.00000000000000E+00
      3.48809366270252E-19   3.63426869783454E-34   3.48809366270252E-19  -1.04061779291047E-17   1.06303713267347E-03
      1.06303709103113E-03   0.00000000000000E+00   0.00000000000000E+00   1.83257171375667E-10  -2.12659630884143E-34
      1.83257171375667E-10   3.53422458990585E-18
      2.43801502521496E-02
      0.00000000000000E+00   4.71418193122899E-11   0.00000000000000E+00   0.00000000000000E+00  -2.09037211894363E-10
     -1.48689093107532E-34  -2.09037211894363E-10   4.23178990909564E-18   0.00000000000000E+00   0.00000000000000E+00
      0.00000000000000E+00   0.00000000000000E+00   0.00000000000000E+00   0.00000000000000E+00   0.00000000000000E+00
      2.63853647972904E-18   0.00000000000000E+00   0.00000000000000E+00   0.00000000000000E+00   0.00000000000000E+00
     -5.72662860429883E-18   3.82576796077695E-34  -5.72662860429883E-18  -1.04061249333734E-17   1.21900751260748E-03
      1.21900746510693E-03   0.00000000000000E+00   0.00000000000000E+00   2.09037217620992E-10  -2.33887702970163E-34
      2.09037217620992E-10   3.53579854454874E-18
      2.78114986106979E-02
      0.00000000000000E+00   5.34633502563128E-11   0.00000000000000E+00   0.00000000000000E+00  -2.37067123732880E-10
     -1.38713933460530E-34  -2.37067123732880E-10   4.23172687774098E-18   0.00000000000000E+00   0.00000000000000E+00
      0.00000000000000E+00   0.00000000000000E+00   0.00000000000000E+00   0.00000000000000E+00   0.00000000000000E+00
      2.63680995134607E-18   0.00000000000000E+00   0.00000000000000E+00   0.00000000000000E+00   0.00000000000000E+00
      7.57268934939989E-19   3.58640242255403E-34   7.57268934939990E-19  -1.04060668363685E-17   1.39057493053490E-03
      1.39057487666482E-03   0.00000000000000E+00   0.00000000000000E+00   2.37067122975612E-10  -2.19926308794873E-34
      2.37067122975612E-10   3.53753000728145E-18
      3.15859818051010E-02
      0.00000000000000E+00   6.03279227245210E-11   0.00000000000000E+00   0.00000000000000E+00  -2.67504543456828E-10
     -1.48800384997788E-34  -2.67504543456828E-10   4.23165754651751E-18   0.00000000000000E+00   0.00000000000000E+00
      0.00000000000000E+00   0.00000000000000E+00   0.00000000000000E+00   0.00000000000000E+00   0.00000000000000E+00
      2.63491087023613E-18   0.00000000000000E+00   0.00000000000000E+00   0.00000000000000E+00   0.00000000000000E+00
      1.07810546390036E-18   3.71158061772078E-34   1.07810546390036E-18  -1.04060031690505E-17   1.57929909025505E-03
      1.57929902946834E-03   0.00000000000000E+00   0.00000000000000E+00   2.67504542378722E-10  -2.22357676774291E-34
      2.67504542378722E-10   3.53943475229683E-18
      3.57379133189445E-02
      0.00000000000000E+00   6.77717218885140E-11   0.00000000000000E+00   0.00000000000000E+00  -3.00509771918509E-10
     -1.22773870142492E-34  -3.00509771918509E-10   4.23158128611460E-18   0.00000000000000E+00   0.00000000000000E+00
      0.00000000000000E+00   0.00000000000000E+00   0.00000000000000E+00   0.00000000000000E+00   0.00000000000000E+00
      2.63282200177780E-18   0.00000000000000E+00   0.00000000000000E+00   0.00000000000000E+00   0.00000000000000E+00
     -5.56118678618040E-18   3.65704973872787E-34  -5.56118678618040E-18  -1.04059334239237E-17   1.78689566594722E-03
      1.78689559766030E-03   0.00000000000000E+00   0.00000000000000E+00   3.00509777479696E-10  -2.42931103730294E-34
      3.00509777479696E-10   3.54153013603126E-18
      4.03050379841723E-02
      0.00000000000000E+00   7.58310553795412E-11   0.00000000000000E+00   0.00000000000000E+00  -3.36243706942286E-10
     -1.21827686747358E-34  -3.36243706942286E-10   4.23149740442886E-18   0.00000000000000E+00   0.00000000000000E+00
      0.00000000000000E+00   0.00000000000000E+00   0.00000000000000E+00   0.00000000000000E+00   0.00000000000000E+00
      2.63052439210252E-18   0.00000000000000E+00   0.00000000000000E+00   0.00000000000000E+00   0.00000000000000E+00
      2.29180910466971E-18   3.53503734814315E-34   2.29180910466971E-18  -1.04058570529043E-17   2.01525189920861E-03
      2.01525182280132E-03   0.00000000000000E+00   0.00000000000000E+00   3.36243704650477E-10  -2.31676048066957E-34
      3.36243704650477E-10   3.54383525637288E-18
      4.53288751159228E-02
      0.00000000000000E+00   8.45417840166166E-11   0.00000000000000E+00   0.00000000000000E+00  -3.74865217890160E-10
     -1.18547728276167E-34  -3.74865217890160E-10   4.23140514031188E-18   0.00000000000000E+00   0.00000000000000E+00
      0.00000000000000E+00   0.00000000000000E+00   0.00000000000000E+00   0.00000000000000E+00   0.00000000000000E+00
      2.62799719701783E-18   0.00000000000000E+00   0.00000000000000E+00   0.00000000000000E+00   0.00000000000000E+00
      3.39345963107370E-18   3.56826886893106E-34   3.39345963107370E-18  -1.04057734653205E-17   2.26644375579614E-03
      2.26644367061219E-03   0.00000000000000E+00   0.00000000000000E+00   3.74865214496700E-10  -2.38279158616939E-34
      3.74865214496700E-10   3.54637112799076E-18
      5.08550959608485E-02
      0.00000000000000E+00   9.39386019423630E-11   0.00000000000000E+00   0.00000000000000E+00  -4.16527896799138E-10
     -1.21330200482803E-34  -4.16527896799138E-10   4.23130365669915E-18   0.00000000000000E+00   0.00000000000000E+00
      0.00000000000000E+00   0.00000000000000E+00   0.00000000000000E+00   0.00000000000000E+00   0.00000000000000E+00
      2.62521749398407E-18   0.00000000000000E+00   0.00000000000000E+00   0.00000000000000E+00   0.00000000000000E+00
      4.89828339021099E-18   3.42173319495733E-34   4.89828339021099E-18  -1.04056820261141E-17   2.54275479804242E-03
      2.54275470339061E-03   0.00000000000000E+00   0.00000000000000E+00   4.16527891900854E-10  -2.20843119012931E-34
      4.16527891900854E-10   3.54916087543090E-18
      5.69339388902666E-02
      0.00000000000000E+00   1.04054119003069E-10   0.00000000000000E+00   0.00000000000000E+00  -4.61376115051549E-10
     -1.34830322938105E-34  -4.61376115051549E-10   4.23119203305702E-18   0.00000000000000E+00   0.00000000000000E+00
      0.00000000000000E+00   0.00000000000000E+00   0.00000000000000E+00   0.00000000000000E+00   0.00000000000000E+00
      2.62216007548219E-18   0.00000000000000E+00   0.00000000000000E+00   0.00000000000000E+00   0.00000000000000E+00
      2.34001143724371E-17   3.83388636922498E-34   2.34001143724371E-17  -1.04055820543424E-17   2.84669694451333E-03
      2.84669683966960E-03   0.00000000000000E+00   0.00000000000000E+00   4.61376091651434E-10  -2.48558313984393E-34
      4.61376091651434E-10   3.55222994580316E-18
      6.36206661126266E-02
      0.00000000000000E+00   1.14917785089607E-10   0.00000000000000E+00   0.00000000000000E+00  -5.09540163444596E-10
     -1.36057611099997E-34  -5.09540163444596E-10   4.23106925708251E-18   0.00000000000000E+00   0.00000000000000E+00
      0.00000000000000E+00   0.00000000000000E+00   0.00000000000000E+00   0.00000000000000E+00   0.00000000000000E+00
      2.61879722196013E-18   0.00000000000000E+00   0.00000000000000E+00   0.00000000000000E+00   0.00000000000000E+00
      1.03341888119532E-17   3.36249375262604E-34   1.03341888119532E-17  -1.04054728221205E-17   3.18103330563133E-03
      3.18103318984198E-03   0.00000000000000E+00   0.00000000000000E+00   5.09540153110407E-10  -2.00191764162608E-34
      5.09540153110407E-10   3.55560634307789E-18
      7.09760660572226E-02
      0.00000000000000E+00   1.26554620859709E-10   0.00000000000000E+00   0.00000000000000E+00  -5.61130794694744E-10
     -1.39851968591947E-34  -5.61130794694744E-10   4.23093421558153E-18   0.00000000000000E+00   0.00000000000000E+00
      0.00000000000000E+00   0.00000000000000E+00   0.00000000000000E+00   0.00000000000000E+00   0.00000000000000E+00
      2.61509845233867E-18   0.00000000000000E+00   0.00000000000000E+00   0.00000000000000E+00   0.00000000000000E+00
      1.50306930735194E-17   3.51159566838124E-34   1.50306930735194E-17  -1.04053535541271E-17   3.54880330286113E-03
      3.54880317534725E-03   0.00000000000000E+00   0.00000000000000E+00   5.61130779664052E-10  -2.11307598246177E-34
      5.61130779664052E-10   3.55932088620694E-18
      7.90670059962782E-02
      0.00000000000000E+00   1.38983773872508E-10   0.00000000000000E+00   0.00000000000000E+00  -6.16232538282400E-10
     -1.04281296043689E-34  -6.16232538282400E-10   4.23078568444448E-18   0.00000000000000E+00   0.00000000000000E+00
      0.00000000000000E+00   0.00000000000000E+00   0.00000000000000E+00   0.00000000000000E+00   0.00000000000000E+00
      2.61103024988661E-18   0.00000000000000E+00   0.00000000000000E+00   0.00000000000000E+00   0.00000000000000E+00
      3.74558991171653E-17   3.26726147873909E-34   3.74558991171653E-17  -1.04052234278616E-17   3.95335029981391E-03
      3.95335015977733E-03   0.00000000000000E+00   0.00000000000000E+00   6.16232500826501E-10  -2.22444851830220E-34
      6.16232500826501E-10   3.56340749353049E-18
      8.79670399292394E-02
      0.00000000000000E+00   1.52216781812830E-10   0.00000000000000E+00   0.00000000000000E+00  -6.74896193271115E-10
     -1.24998166211427E-34  -6.74896193271115E-10   4.23062231763237E-18   0.00000000000000E+00   0.00000000000000E+00
      0.00000000000000E+00   0.00000000000000E+00   0.00000000000000E+00   0.00000000000000E+00   0.00000000000000E+00
      2.60655576110034E-18   0.00000000000000E+00   0.00000000000000E+00   0.00000000000000E+00   0.00000000000000E+00
      6.12006024796227E-17   3.16253399375865E-34   6.12006024796227E-17  -1.04050815749444E-17   4.39835199646197E-03
      4.39835184309293E-03   0.00000000000000E+00   0.00000000000000E+00   6.74896132070513E-10  -1.91255233164439E-34
      6.74896132070513E-10   3.56790349621176E-18
      9.77570772554967E-02
      0.00000000000000E+00   1.66255752145050E-10   0.00000000000000E+00   0.00000000000000E+00  -7.37130665828328E-10
     -1.39520605996493E-34  -7.37130665828328E-10   4.23044263507173E-18   0.00000000000000E+00   0.00000000000000E+00
      0.00000000000000E+00   0.00000000000000E+00   0.00000000000000E+00   0.00000000000000E+00   0.00000000000000E+00
      2.60163446478911E-18   0.00000000000000E+00   0.00000000000000E+00   0.00000000000000E+00   0.00000000000000E+00
      6.30784640194519E-17   3.43721239577404E-34   6.30784640194519E-17  -1.04049270834778E-17   4.88785386277484E-03
      4.88785369526149E-03   0.00000000000000E+00   0.00000000000000E+00   7.37130602749863E-10  -2.04200633580911E-34
      7.37130602749863E-10   3.57284998361690E-18
      1.07757077255497E-01
      0.00000000000000E+00   1.80052451781688E-10   0.00000000000000E+00   0.00000000000000E+00  -7.98289087649929E-10
     -1.38082604300495E-34  -7.98289087649929E-10   4.23025912138046E-18   0.00000000000000E+00   0.00000000000000E+00
      0.00000000000000E+00   0.00000000000000E+00   0.00000000000000E+00   0.00000000000000E+00   0.00000000000000E+00
      2.59660831186736E-18   0.00000000000000E+00   0.00000000000000E+00   0.00000000000000E+00   0.00000000000000E+00
      5.19744147246299E-17   3.69312654195132E-34   5.19744147246299E-17  -1.04047709409182E-17   5.38785386277483E-03
      5.38785368136145E-03   0.00000000000000E+00   0.00000000000000E+00   7.98289035675514E-10  -2.31230049894637E-34
      7.98289035675514E-10   3.57790350767042E-18
      1.17757077255497E-01
      0.00000000000000E+00   1.93317001356085E-10   0.00000000000000E+00   0.00000000000000E+00  -8.57086563768594E-10
     -1.40450381177428E-34  -8.57086563768594E-10   4.23007563016335E-18   0.00000000000000E+00   0.00000000000000E+00
      0.00000000000000E+00   0.00000000000000E+00   0.00000000000000E+00   0.00000000000000E+00   0.00000000000000E+00
      2.59158284896846E-18   0.00000000000000E+00   0.00000000000000E+00   0.00000000000000E+00   0.00000000000000E+00
      5.24969480725914E-17   3.50407802762002E-34   5.24969480725914E-17  -1.04046164671189E-17   5.88785386277483E-03
      5.88785366799772E-03   0.00000000000000E+00   0.00000000000000E+00   8.57086511271645E-10  -2.09957421584574E-34
      8.57086511271645E-10   3.58295798798706E-18
      1.27757077255497E-01
      0.00000000000000E+00   2.06066341671391E-10   0.00000000000000E+00   0.00000000000000E+00  -9.13598450040972E-10
     -7.63867137886462E-35  -9.13598450040972E-10   4.22989216120999E-18   0.00000000000000E+00   0.00000000000000E+00
      0.00000000000000E+00   0.00000000000000E+00   0.00000000000000E+00   0.00000000000000E+00   0.00000000000000E+00
      2.58655807050570E-18   0.00000000000000E+00   0.00000000000000E+00   0.00000000000000E+00   0.00000000000000E+00
      5.16745734057850E-17   2.87009581400806E-34   5.16745734057850E-17  -1.04044636509514E-17   6.38785386277483E-03
      6.38785365515320E-03   0.00000000000000E+00   0.00000000000000E+00   9.13598398366398E-10  -2.10622867612160E-34
      9.13598398366398E-10   3.58801341923572E-18
      1.37757077255497E-01
      0.00000000000000E+00   2.18317227358991E-10   0.00000000000000E+00   0.00000000000000E+00  -9.67899212734249E-10
     -1.43079238770097E-34  -9.67899212734249E-10   4.22970871430947E-18   0.00000000000000E+00   0.00000000000000E+00
      0.00000000000000E+00   0.00000000000000E+00   0.00000000000000E+00   0.00000000000000E+00   0.00000000000000E+00
      2.58153397094181E-18   0.00000000000000E+00   0.00000000000000E+00   0.00000000000000E+00   0.00000000000000E+00
      5.08557103718305E-17   3.52487307394004E-34   5.08557103718305E-17  -1.04043124813775E-17   6.88785386277483E-03
      6.88785364281102E-03   0.00000000000000E+00   0.00000000000000E+00   9.67899161878538E-10  -2.09408068623907E-34
      9.67899161878538E-10   3.59306979612620E-18
      1.47757077255497E-01
      0.00000000000000E+00   2.30086156546949E-10   0.00000000000000E+00   0.00000000000000E+00  -1.02006217809742E-09
     -9.96963815763904E-35  -1.02006217809742E-09   4.22952528925078E-18   0.00000000000000E+00   0.00000000000000E+00
      0.00000000000000E+00   0.00000000000000E+00   0.00000000000000E+00   0.00000000000000E+00   0.00000000000000E+00
      2.57651054478393E-18   0.00000000000000E+00   0.00000000000000E+00   0.00000000000000E+00   0.00000000000000E+00
      5.02874514645255E-17   2.96770753002260E-34   5.02874514645255E-17  -1.04041629474374E-17   7.38785386277483E-03
      7.38785363095455E-03   0.00000000000000E+00   0.00000000000000E+00   1.02006212780997E-09  -1.97074371425869E-34
      1.02006212780997E-09   3.59812711340264E-18
      1.57757077255497E-01
      0.00000000000000E+00   2.41389286462143E-10   0.00000000000000E+00   0.00000000000000E+00  -1.07015934700715E-09
     -1.36114680350321E-34  -1.07015934700715E-09   4.22934188582268E-18   0.00000000000000E+00   0.00000000000000E+00
      0.00000000000000E+00   0.00000000000000E+00   0.00000000000000E+00   0.00000000000000E+00   0.00000000000000E+00
      2.57148778658013E-18   0.00000000000000E+00   0.00000000000000E+00   0.00000000000000E+00   0.00000000000000E+00
      4.87364050159588E-17   3.51935613757848E-34   4.87364050159588E-17  -1.04040150382389E-17   7.88785386277484E-03
      7.88785361956745E-03   0.00000000000000E+00   0.00000000000000E+00   1.07015929827074E-09  -2.15820933407527E-34
      1.07015929827074E-09   3.60318536583609E-18
      1.67757077255497E-01
      0.00000000000000E+00   2.52242541823604E-10   0.00000000000000E+00   0.00000000000000E+00  -1.11826127281574E-09
     -1.43259586671775E-34  -1.11826127281574E-09   4.22915850381438E-18   0.00000000000000E+00   0.00000000000000E+00
      0.00000000000000E+00   0.00000000000000E+00   0.00000000000000E+00   0.00000000000000E+00   0.00000000000000E+00
      2.56646569091736E-18   0.00000000000000E+00   0.00000000000000E+00   0.00000000000000E+00   0.00000000000000E+00
      4.75135820445720E-17   3.25256794856556E-34   4.75135820445720E-17  -1.04038687429600E-17   8.38785386277484E-03
      8.38785360863372E-03   0.00000000000000E+00   0.00000000000000E+00   1.11826122530216E-09  -1.81997208184781E-34
      1.11826122530216E-09   3.60824454822830E-18
      1.77757077255497E-01
      0.00000000000000E+00   2.62661484108561E-10   0.00000000000000E+00   0.00000000000000E+00  -1.16443701585393E-09
     -1.53657178636443E-34  -1.16443701585393E-09   4.22897514301460E-18   0.00000000000000E+00   0.00000000000000E+00
      0.00000000000000E+00   0.00000000000000E+00   0.00000000000000E+00   0.00000000000000E+00   0.00000000000000E+00
      2.56144425240107E-18   0.00000000000000E+00   0.00000000000000E+00   0.00000000000000E+00   0.00000000000000E+00
      4.76918889274801E-17   3.41435497690208E-34   4.76918889274801E-17  -1.04037240508222E-17   8.88785386277484E-03
      8.88785359813778E-03   0.00000000000000E+00   0.00000000000000E+00   1.16443696816204E-09  -1.87778319053765E-34
      1.16443696816204E-09   3.61330465540660E-18
      1.87757077255497E-01
      0.00000000000000E+00   2.72661216397992E-10   0.00000000000000E+00   0.00000000000000E+00  -1.20875399246163E-09
     -1.46696442973445E-34  -1.20875399246163E-09   4.22879180321303E-18   0.00000000000000E+00   0.00000000000000E+00
      0.00000000000000E+00   0.00000000000000E+00   0.00000000000000E+00   0.00000000000000E+00   0.00000000000000E+00
      2.55642346568897E-18   0.00000000000000E+00   0.00000000000000E+00   0.00000000000000E+00   0.00000000000000E+00
      4.69383923415159E-17   3.21482337130590E-34   4.69383923415159E-17  -1.04035809511316E-17   9.38785386277484E-03
      9.38785358806424E-03   0.00000000000000E+00   0.00000000000000E+00   1.20875394552323E-09  -1.74785894157145E-34
      1.20875394552323E-09   3.61836568222957E-18
      1.97757077255497E-01
      0.00000000000000E+00   2.82256525694585E-10   0.00000000000000E+00   0.00000000000000E+00  -1.25127796129361E-09