DF-ISE text

Info {
  version   = 1.0
  type      = xyplot
  datasets  = [
    "time"
    "source OuterVoltage" "source InnerVoltage" "source QuasiFermiPotential" "source DisplacementCurrent" "source eCurrent"
    "source hCurrent" "source TotalCurrent" "source Charge" "gate OuterVoltage" "gate InnerVoltage"
    "gate QuasiFermiPotential" "gate DisplacementCurrent" "gate eCurrent" "gate hCurrent" "gate TotalCurrent"
    "gate Charge" "substrate OuterVoltage" "substrate InnerVoltage" "substrate QuasiFermiPotential" "substrate DisplacementCurrent"
    "substrate eCurrent" "substrate hCurrent" "substrate TotalCurrent" "substrate Charge" "drain OuterVoltage"
    "drain InnerVoltage" "drain QuasiFermiPotential" "drain DisplacementCurrent" "drain eCurrent" "drain hCurrent"
    "drain TotalCurrent" "drain Charge" ]
  functions = [
    Time
    OuterVoltage InnerVoltage QuasiFermiPotential DisplacementCurrent eCurrent
    hCurrent TotalCurrent Charge OuterVoltage InnerVoltage
    QuasiFermiPotential DisplacementCurrent eCurrent hCurrent TotalCurrent
    Charge OuterVoltage InnerVoltage QuasiFermiPotential DisplacementCurrent
    eCurrent hCurrent TotalCurrent Charge OuterVoltage
    InnerVoltage QuasiFermiPotential DisplacementCurrent eCurrent hCurrent
    TotalCurrent Charge ]
}

Data {
      0.00000000000000E+00
      0.00000000000000E+00   0.00000000000000E+00   0.00000000000000E+00   0.00000000000000E+00  -2.59301067718932E-22
      5.03547705535046E-34  -2.59301067718429E-22   5.33114665853308E-18   0.00000000000000E+00   0.00000000000000E+00
      0.00000000000000E+00   0.00000000000000E+00   0.00000000000000E+00   0.00000000000000E+00   0.00000000000000E+00
      4.43546754244056E-18   0.00000000000000E+00   0.00000000000000E+00   0.00000000000000E+00   0.00000000000000E+00
      7.88720251525000E-22  -1.05151900402544E-33   7.88720251523949E-22  -1.42817306669734E-17   0.00000000000000E+00
      0.00000000000000E+00   0.00000000000000E+00   0.00000000000000E+00  -5.29419183806069E-22   5.47971298490395E-34
     -5.29419183805521E-22   4.51511646599979E-18
      0.00000000000000E+00
      0.00000000000000E+00   0.00000000000000E+00   0.00000000000000E+00   0.00000000000000E+00  -1.07062001989902E-19
      4.92203560428850E-34  -1.07062001989902E-19   5.32922720426526E-18   0.00000000000000E+00   0.00000000000000E+00
      0.00000000000000E+00   0.00000000000000E+00   0.00000000000000E+00   0.00000000000000E+00   0.00000000000000E+00
      4.42843961572436E-18   0.00000000000000E+00   0.00000000000000E+00   0.00000000000000E+00   0.00000000000000E+00
      9.07743874634080E-20  -1.02615010798313E-33   9.07743874634069E-20  -1.42712349524645E-17   0.00000000000000E+00
      0.00000000000000E+00   0.00000000000000E+00   0.00000000000000E+00   1.62876145264942E-20   5.33946547554275E-34
      1.62876145264948E-20   4.51356813247487E-18
      1.00000000000000E-03
      0.00000000000000E+00   1.16423050828313E-12   0.00000000000000E+00   0.00000000000000E+00  -5.39667467171399E-12
      5.50923461299676E-34  -5.39667467171399E-12   5.32921274035102E-18   0.00000000000000E+00   0.00000000000000E+00
      0.00000000000000E+00   0.00000000000000E+00   0.00000000000000E+00   0.00000000000000E+00   0.00000000000000E+00
      4.42780262236585E-18   0.00000000000000E+00   0.00000000000000E+00   0.00000000000000E+00   0.00000000000000E+00
     -2.25650387369151E-19  -1.07053615561606E-33  -2.25650387369152E-19  -1.42712074597150E-17   5.00000000000000E-05
      4.99999988306135E-05   0.00000000000000E+00   0.00000000000000E+00   5.39667489736437E-12   5.19612694316388E-34
      5.39667489736437E-12   4.51419209699809E-18
      2.09333333333333E-03
      0.00000000000000E+00   2.43338659567030E-12   0.00000000000000E+00   0.00000000000000E+00  -1.12795906287033E-11
      5.20816195722699E-34  -1.12795906287033E-11   5.32919692663628E-18   0.00000000000000E+00   0.00000000000000E+00
      0.00000000000000E+00   0.00000000000000E+00   0.00000000000000E+00   0.00000000000000E+00   0.00000000000000E+00
      4.42710618559135E-18   0.00000000000000E+00   0.00000000000000E+00   0.00000000000000E+00   0.00000000000000E+00
     -2.94126447717720E-19  -1.06617638389257E-33  -2.94126447717721E-19  -1.42711774247769E-17   1.04666666666667E-04
      1.04666664222528E-04   0.00000000000000E+00   0.00000000000000E+00   1.12795909228297E-11   5.45360188169873E-34
      1.12795909228297E-11   4.51487431254924E-18
      3.29600000000000E-03
      0.00000000000000E+00   3.82474334705719E-12   0.00000000000000E+00   0.00000000000000E+00  -1.77290223333099E-11
      5.27340510505127E-34  -1.77290223333099E-11   5.32917953174965E-18   0.00000000000000E+00   0.00000000000000E+00
      0.00000000000000E+00   0.00000000000000E+00   0.00000000000000E+00   0.00000000000000E+00   0.00000000000000E+00
      4.42634011634659E-18   0.00000000000000E+00   0.00000000000000E+00   0.00000000000000E+00   0.00000000000000E+00
      3.42892087455378E-19  -1.06004472485599E-33   3.42892087455377E-19  -1.42711444150406E-17   1.64800000000000E-04
      1.64799996158347E-04   0.00000000000000E+00   0.00000000000000E+00   1.77290219904178E-11   5.32704214350868E-34
      1.77290219904178E-11   4.51562476694435E-18
      4.61893333333333E-03
      0.00000000000000E+00   5.34946610373999E-12   0.00000000000000E+00   0.00000000000000E+00  -2.47965513566593E-11
      5.16849297960436E-34  -2.47965513566593E-11   5.32916039761639E-18   0.00000000000000E+00   0.00000000000000E+00
      0.00000000000000E+00   0.00000000000000E+00   0.00000000000000E+00   0.00000000000000E+00   0.00000000000000E+00
      4.42549745372457E-18   0.00000000000000E+00   0.00000000000000E+00   0.00000000000000E+00   0.00000000000000E+00
     -1.96906648475470E-19  -1.06095242750010E-33  -1.96906648475471E-19  -1.42711081390254E-17   2.30946666666667E-04
      2.30946661293553E-04   0.00000000000000E+00   0.00000000000000E+00   2.47965515535660E-11   5.44103129539662E-34
      2.47965515535660E-11   4.51645028768446E-18
      6.07416000000000E-03
      0.00000000000000E+00   7.01957907942231E-12   0.00000000000000E+00   0.00000000000000E+00  -3.25379329015409E-11
      5.14979499440885E-34  -3.25379329015409E-11   5.32913935036292E-18   0.00000000000000E+00   0.00000000000000E+00
      0.00000000000000E+00   0.00000000000000E+00   0.00000000000000E+00   0.00000000000000E+00   0.00000000000000E+00
      4.42457054121437E-18   0.00000000000000E+00   0.00000000000000E+00   0.00000000000000E+00   0.00000000000000E+00
     -2.70418138995095E-19  -1.04777966254118E-33  -2.70418138995096E-19  -1.42710682773533E-17   3.03708000000000E-04
      3.03707992949410E-04   0.00000000000000E+00   0.00000000000000E+00   3.25379331719590E-11   5.32800163100290E-34
      3.25379331719590E-11   4.51735838577596E-18
      7.67490933333333E-03
      0.00000000000000E+00   8.84803982892099E-12   0.00000000000000E+00   0.00000000000000E+00  -4.10132662178376E-11
      5.22982093691570E-34  -4.10132662178376E-11   5.32911619873904E-18   0.00000000000000E+00   0.00000000000000E+00
      0.00000000000000E+00   0.00000000000000E+00   0.00000000000000E+00   0.00000000000000E+00   0.00000000000000E+00
      4.42355095724189E-18   0.00000000000000E+00   0.00000000000000E+00   0.00000000000000E+00   0.00000000000000E+00
      2.02458634364196E-19  -1.03344391435995E-33   2.02458634364195E-19  -1.42710244802193E-17   3.83745466666667E-04
      3.83745457779539E-04   0.00000000000000E+00   0.00000000000000E+00   4.10132660153789E-11   5.10461820668377E-34
      4.10132660153789E-11   4.51835732423839E-18
      9.43573360000000E-03
      0.00000000000000E+00   1.08488079248615E-11   0.00000000000000E+00   0.00000000000000E+00  -5.02871593115294E-11
      5.37616929158026E-34  -5.02871593115294E-11   5.32909073238226E-18   0.00000000000000E+00   0.00000000000000E+00
      0.00000000000000E+00   0.00000000000000E+00   0.00000000000000E+00   0.00000000000000E+00   0.00000000000000E+00
      4.42242943878463E-18   0.00000000000000E+00   0.00000000000000E+00   0.00000000000000E+00   0.00000000000000E+00
      2.94019973350289E-19  -1.06798414619486E-33   2.94019973350288E-19  -1.42709763646621E-17   4.71786680000000E-04
      4.71786669103272E-04   0.00000000000000E+00   0.00000000000000E+00   5.02871590175094E-11   5.30367217036830E-34
      5.02871590175094E-11   4.51945619349530E-18
      1.13726402933333E-02
      0.00000000000000E+00   1.30368275816466E-11   0.00000000000000E+00   0.00000000000000E+00  -6.04288679967757E-11
      5.32314843946400E-34  -6.04288679967757E-11   5.32906271990941E-18   0.00000000000000E+00   0.00000000000000E+00
      0.00000000000000E+00   0.00000000000000E+00   0.00000000000000E+00   0.00000000000000E+00   0.00000000000000E+00
      4.42119579737367E-18   0.00000000000000E+00   0.00000000000000E+00   0.00000000000000E+00   0.00000000000000E+00
      5.66674095214320E-20  -1.05650629310634E-33   5.66674095214309E-20  -1.42709235116268E-17   5.68632014666667E-04
      5.68632001572271E-04   0.00000000000000E+00   0.00000000000000E+00   6.04288679401084E-11   5.24191449159940E-34
      6.04288679401084E-11   4.52066499434374E-18
      1.35032376560000E-02
      0.00000000000000E+00   1.54280731641099E-11   0.00000000000000E+00   0.00000000000000E+00  -7.15123886154772E-11
      5.09820522494213E-34  -7.15123886154772E-11   5.32903190681770E-18   0.00000000000000E+00   0.00000000000000E+00
      0.00000000000000E+00   0.00000000000000E+00   0.00000000000000E+00   0.00000000000000E+00   0.00000000000000E+00
      4.41983882672473E-18   0.00000000000000E+00   0.00000000000000E+00   0.00000000000000E+00   0.00000000000000E+00
      8.42509532976792E-20  -9.83946572730845E-34   8.42509532976783E-20  -1.42708654628101E-17   6.75161882800000E-04
      6.75161867303812E-04   0.00000000000000E+00   0.00000000000000E+00   7.15123885312262E-11   4.74126050236631E-34
      7.15123885312262E-11   4.52199472926765E-18
      1.58468947549333E-02
      0.00000000000000E+00   1.80395491875158E-11   0.00000000000000E+00   0.00000000000000E+00  -8.36164901620097E-11
      4.90115600881010E-34  -8.36164901620097E-11   5.32899801317663E-18   0.00000000000000E+00   0.00000000000000E+00
      0.00000000000000E+00   0.00000000000000E+00   0.00000000000000E+00   0.00000000000000E+00   0.00000000000000E+00
      4.41834620116932E-18   0.00000000000000E+00   0.00000000000000E+00   0.00000000000000E+00   0.00000000000000E+00
      3.68817046182358E-19  -9.86215880792238E-34   3.68817046182357E-19  -1.42708017172858E-17   7.92344737746667E-04
      7.92344719627493E-04   0.00000000000000E+00   0.00000000000000E+00   8.36164897931927E-11   4.96100279911227E-34
      8.36164897931927E-11   4.52345750293981E-18
      1.84249175637600E-02
      0.00000000000000E+00   2.08892787335387E-11   0.00000000000000E+00   0.00000000000000E+00  -9.68246658755243E-11
      5.20885817890936E-34  -9.68246658755243E-11   5.32896073108990E-18   0.00000000000000E+00   0.00000000000000E+00
      0.00000000000000E+00   0.00000000000000E+00   0.00000000000000E+00   0.00000000000000E+00   0.00000000000000E+00
      4.41670436397243E-18   0.00000000000000E+00   0.00000000000000E+00   0.00000000000000E+00   0.00000000000000E+00
      5.04126680241757E-20  -1.04800770461171E-33   5.04126680241746E-20  -1.42707317279050E-17   9.21245878188001E-04
      9.21245857206542E-04   0.00000000000000E+00   0.00000000000000E+00   9.68246658251115E-11   5.27121886720771E-34
      9.68246658251115E-11   4.52506663284271E-18
      2.12607426534693E-02
      0.00000000000000E+00   2.39962960033922E-11   0.00000000000000E+00   0.00000000000000E+00  -1.11224995778677E-10
      5.20385813988680E-34  -1.11224995778677E-10   5.32891972190432E-18   0.00000000000000E+00   0.00000000000000E+00
      0.00000000000000E+00   0.00000000000000E+00   0.00000000000000E+00   0.00000000000000E+00   0.00000000000000E+00
      4.41489840452975E-18   0.00000000000000E+00   0.00000000000000E+00   0.00000000000000E+00   0.00000000000000E+00
      4.55404488307825E-19  -1.05179448318103E-33   4.55404488307824E-19  -1.42706548974664E-17   1.06303713267347E-03
      1.06303710857132E-03   0.00000000000000E+00   0.00000000000000E+00   1.11224995323273E-10   5.31408669192350E-34
      1.11224995323273E-10   4.52683677103234E-18
      2.43801502521496E-02
      0.00000000000000E+00   2.73805461987916E-11   0.00000000000000E+00   0.00000000000000E+00  -1.26909865626364E-10
      5.31065771136862E-34  -1.26909865626364E-10   5.32887461314082E-18   0.00000000000000E+00   0.00000000000000E+00
      0.00000000000000E+00   0.00000000000000E+00   0.00000000000000E+00   0.00000000000000E+00   0.00000000000000E+00
      4.41291192335218E-18   0.00000000000000E+00   0.00000000000000E+00   0.00000000000000E+00   0.00000000000000E+00
      5.14947320104667E-19  -1.06942275939992E-33   5.14947320104666E-19  -1.42705705746729E-17   1.21900751260748E-03
      1.21900748510619E-03   0.00000000000000E+00   0.00000000000000E+00   1.26909865111417E-10   5.38356988263053E-34
      1.26909865111417E-10   4.52878403817991E-18
      2.78114986106979E-02
      0.00000000000000E+00   3.10628242921289E-11   0.00000000000000E+00   0.00000000000000E+00  -1.43975537548727E-10
      5.17264677160901E-34  -1.43975537548727E-10   5.32882499511993E-18   0.00000000000000E+00   0.00000000000000E+00
      0.00000000000000E+00   0.00000000000000E+00   0.00000000000000E+00   0.00000000000000E+00   0.00000000000000E+00
      4.41072688362166E-18   0.00000000000000E+00   0.00000000000000E+00   0.00000000000000E+00   0.00000000000000E+00
      1.30926156752937E-18  -1.03209353813436E-33   1.30926156752937E-18  -1.42704780498777E-17   1.39057493053490E-03
      1.39057489933513E-03   0.00000000000000E+00   0.00000000000000E+00   1.43975536239466E-10   5.14828860973457E-34
      1.43975536239466E-10   4.53092617113606E-18
      3.15859818051010E-02
      0.00000000000000E+00   3.50646285713509E-11   0.00000000000000E+00   0.00000000000000E+00  -1.62521538721387E-10
      5.20598756177156E-34  -1.62521538721387E-10   5.32877041725135E-18   0.00000000000000E+00   0.00000000000000E+00
      0.00000000000000E+00   0.00000000000000E+00   0.00000000000000E+00   0.00000000000000E+00   0.00000000000000E+00
      4.40832344798389E-18   0.00000000000000E+00   0.00000000000000E+00   0.00000000000000E+00   0.00000000000000E+00
      1.29560903424831E-18  -1.05151029684677E-33   1.29560903424831E-18  -1.42703765506275E-17   1.57929909025505E-03
      1.57929905503588E-03   0.00000000000000E+00   0.00000000000000E+00   1.62521537425778E-10   5.30911540669615E-34
      1.62521537425778E-10   4.53328268539223E-18
      3.57379133189445E-02
      0.00000000000000E+00   3.94080150122687E-11   0.00000000000000E+00   0.00000000000000E+00  -1.82649806564234E-10
      5.36336461298518E-34  -1.82649806564234E-10   5.32871038395427E-18   0.00000000000000E+00   0.00000000000000E+00
      0.00000000000000E+00   0.00000000000000E+00   0.00000000000000E+00   0.00000000000000E+00   0.00000000000000E+00
      4.40567979913617E-18   0.00000000000000E+00   0.00000000000000E+00   0.00000000000000E+00   0.00000000000000E+00
      2.34859325767388E-18  -1.04037368236276E-33   2.34859325767388E-18  -1.42702652370537E-17   1.78689566594722E-03
      1.78689562636559E-03   0.00000000000000E+00   0.00000000000000E+00   1.82649804215641E-10   5.04037221064242E-34
      1.82649804215641E-10   4.53587505396328E-18
      4.03050379841723E-02
      0.00000000000000E+00   4.41152720985413E-11   0.00000000000000E+00   0.00000000000000E+00  -2.04463562089375E-10
      5.24637371340046E-34  -2.04463562089375E-10   5.32864435017225E-18   0.00000000000000E+00   0.00000000000000E+00
      0.00000000000000E+00   0.00000000000000E+00   0.00000000000000E+00   0.00000000000000E+00   0.00000000000000E+00
      4.40277194259463E-18   0.00000000000000E+00   0.00000000000000E+00   0.00000000000000E+00   0.00000000000000E+00
      3.13862647959941E-18  -1.00265049384565E-33   3.13862647959941E-18  -1.42701431971293E-17   2.01525189920861E-03
      2.01525185489905E-03   0.00000000000000E+00   0.00000000000000E+00   2.04463558950749E-10   4.78013122505599E-34
      2.04463558950749E-10   4.53872690436243E-18
      4.53288751159228E-02
      0.00000000000000E+00   4.92087106544395E-11   0.00000000000000E+00   0.00000000000000E+00  -2.28065869023623E-10
      5.15777352570701E-34  -2.28065869023623E-10   5.32857171644188E-18   0.00000000000000E+00   0.00000000000000E+00
      0.00000000000000E+00   0.00000000000000E+00   0.00000000000000E+00   0.00000000000000E+00   0.00000000000000E+00
      4.39957348988814E-18   0.00000000000000E+00   0.00000000000000E+00   0.00000000000000E+00   0.00000000000000E+00
      5.29107079574177E-18  -1.01373909855221E-33   5.29107079574176E-18  -1.42700094418500E-17   2.26644375579614E-03
      2.26644370637080E-03   0.00000000000000E+00   0.00000000000000E+00   2.28065863732552E-10   4.97961745981506E-34
      2.28065863732552E-10   4.54186423552000E-18
      5.08550959608485E-02
      0.00000000000000E+00   5.47102071034501E-11   0.00000000000000E+00   0.00000000000000E+00  -2.53557810665220E-10
      5.04404119175966E-34  -2.53557810665220E-10   5.32849182347174E-18   0.00000000000000E+00   0.00000000000000E+00
      0.00000000000000E+00   0.00000000000000E+00   0.00000000000000E+00   0.00000000000000E+00   0.00000000000000E+00
      4.39605542024994E-18   0.00000000000000E+00   0.00000000000000E+00   0.00000000000000E+00   0.00000000000000E+00
      7.60651749361960E-18  -9.77578213030228E-34   7.60651749361960E-18  -1.42698629004107E-17   2.54275479804242E-03
      2.54275474309147E-03   0.00000000000000E+00   0.00000000000000E+00   2.53557803058702E-10   4.73174093854261E-34
      2.53557803058702E-10   4.54531565668900E-18
      5.69339388902666E-02
      0.00000000000000E+00   6.06407310057086E-11   0.00000000000000E+00   0.00000000000000E+00  -2.81036247198489E-10
      5.45686855033983E-34  -2.81036247198489E-10   5.32840394618289E-18   0.00000000000000E+00   0.00000000000000E+00
      0.00000000000000E+00   0.00000000000000E+00   0.00000000000000E+00   0.00000000000000E+00   0.00000000000000E+00
      4.39218581868971E-18   0.00000000000000E+00   0.00000000000000E+00   0.00000000000000E+00   0.00000000000000E+00
      1.08517429153350E-17  -1.04996384405805E-33   1.08517429153350E-17  -1.42697024154669E-17   2.84669694451333E-03
      2.84669688360588E-03   0.00000000000000E+00   0.00000000000000E+00   2.81036236346746E-10   5.04276989024070E-34
      2.81036236346746E-10   4.54911265059425E-18
      6.36206661126266E-02
      0.00000000000000E+00   6.70197939895764E-11   0.00000000000000E+00   0.00000000000000E+00  -3.10591082137295E-10
      5.38841082661706E-34  -3.10591082137295E-10   5.32830728715773E-18   0.00000000000000E+00   0.00000000000000E+00
      0.00000000000000E+00   0.00000000000000E+00   0.00000000000000E+00   0.00000000000000E+00   0.00000000000000E+00
      4.38792958812394E-18   0.00000000000000E+00   0.00000000000000E+00   0.00000000000000E+00   0.00000000000000E+00
      1.60618405896651E-17  -1.01832274754584E-33   1.60618405896651E-17  -1.42695267385987E-17   3.18103330563133E-03
      3.18103323831690E-03   0.00000000000000E+00   0.00000000000000E+00   3.10591066075454E-10   4.79481664884136E-34
      3.10591066075454E-10   4.55328986331698E-18
      7.09760660572226E-02
      0.00000000000000E+00   7.38646587284979E-11   0.00000000000000E+00   0.00000000000000E+00  -3.42302000526544E-10
      5.28473179538494E-34  -3.42302000526544E-10   5.32820096943894E-18   0.00000000000000E+00   0.00000000000000E+00
      0.00000000000000E+00   0.00000000000000E+00   0.00000000000000E+00   0.00000000000000E+00   0.00000000000000E+00
      4.38324813302246E-18   0.00000000000000E+00   0.00000000000000E+00   0.00000000000000E+00   0.00000000000000E+00
      3.94142799972384E-17  -1.02001720809445E-33   3.94142799972384E-17  -1.42693345261332E-17   3.54880330286113E-03
      3.54880322867191E-03   0.00000000000000E+00   0.00000000000000E+00   3.42301961112264E-10   4.91544028555953E-34
      3.42301961112264E-10   4.55788542367179E-18
      7.90670059962782E-02
      0.00000000000000E+00   8.11896414174568E-11   0.00000000000000E+00   0.00000000000000E+00  -3.76234624755315E-10
      5.70683588461958E-34  -3.76234624755315E-10   5.32808402861396E-18   0.00000000000000E+00   0.00000000000000E+00
      0.00000000000000E+00   0.00000000000000E+00   0.00000000000000E+00   0.00000000000000E+00   0.00000000000000E+00
      4.37809901171879E-18   0.00000000000000E+00   0.00000000000000E+00   0.00000000000000E+00   0.00000000000000E+00
      3.42925168137254E-17  -1.02909371060878E-33   3.42925168137254E-17  -1.42691243354370E-17   3.95335029981391E-03
      3.95335021826772E-03   0.00000000000000E+00   0.00000000000000E+00   3.76234590462798E-10   4.58410122146821E-34
      3.76234590462798E-10   4.56294129510427E-18
      8.79670399292394E-02
      0.00000000000000E+00   8.90050369413209E-11   0.00000000000000E+00   0.00000000000000E+00  -4.12436161242701E-10
      5.15972287771688E-34  -4.12436161242701E-10   5.32795540411520E-18   0.00000000000000E+00   0.00000000000000E+00
      0.00000000000000E+00   0.00000000000000E+00   0.00000000000000E+00   0.00000000000000E+00   0.00000000000000E+00
      4.37243555443351E-18   0.00000000000000E+00   0.00000000000000E+00   0.00000000000000E+00   0.00000000000000E+00
      4.92186078325856E-17  -9.85698139450670E-34   4.92186078325856E-17  -1.42688946220569E-17   4.39835199646197E-03
      4.39835190706628E-03   0.00000000000000E+00   0.00000000000000E+00   4.12436112024093E-10   4.69725851678981E-34
      4.12436112024093E-10   4.56850366350821E-18
      9.77570772554967E-02
      0.00000000000000E+00   9.73161243039045E-11   0.00000000000000E+00   0.00000000000000E+00  -4.50930189031383E-10
      5.40013653942934E-34  -4.50930189031383E-10   5.32781392965810E-18   0.00000000000000E+00   0.00000000000000E+00
      0.00000000000000E+00   0.00000000000000E+00   0.00000000000000E+00   0.00000000000000E+00   0.00000000000000E+00
      4.36620644352275E-18   0.00000000000000E+00   0.00000000000000E+00   0.00000000000000E+00   0.00000000000000E+00
     -1.01588792937266E-19  -9.92298791596570E-34  -1.01588792937267E-19  -1.42686437378319E-17   4.88785386277484E-03
      4.88785376503184E-03   0.00000000000000E+00   0.00000000000000E+00   4.50930189132971E-10   4.52285137653636E-34
      4.50930189132971E-10   4.57462336465113E-18
      1.07757077255497E-01
      0.00000000000000E+00   1.05504488894117E-10   0.00000000000000E+00   0.00000000000000E+00  -4.88852295518474E-10
      5.38841314632126E-34  -4.88852295518474E-10   5.32766943445008E-18   0.00000000000000E+00   0.00000000000000E+00
      0.00000000000000E+00   0.00000000000000E+00   0.00000000000000E+00   0.00000000000000E+00   0.00000000000000E+00
      4.35984448233601E-18   0.00000000000000E+00   0.00000000000000E+00   0.00000000000000E+00   0.00000000000000E+00
      8.07094791819958E-17  -9.99101605381324E-34   8.07094791819958E-17  -1.42683894086767E-17   5.38785386277483E-03
      5.38785375680783E-03   0.00000000000000E+00   0.00000000000000E+00   4.88852214808995E-10   4.60260290749197E-34
      4.88852214808995E-10   4.58087549189059E-18
      1.17757077255497E-01
      0.00000000000000E+00   1.13397331044629E-10   0.00000000000000E+00   0.00000000000000E+00  -5.25402208178519E-10
      5.28556891155904E-34  -5.25402208178519E-10   5.32752495264769E-18   0.00000000000000E+00   0.00000000000000E+00
      0.00000000000000E+00   0.00000000000000E+00   0.00000000000000E+00   0.00000000000000E+00   0.00000000000000E+00
      4.35348326575745E-18   0.00000000000000E+00   0.00000000000000E+00   0.00000000000000E+00   0.00000000000000E+00
      8.52519851852808E-17  -9.49831020173378E-34   8.52519851852808E-17  -1.42681370235754E-17   5.88785386277483E-03
      5.88785374888065E-03   0.00000000000000E+00   0.00000000000000E+00   5.25402122926534E-10   4.21274129017473E-34
      5.25402122926534E-10   4.58712880517025E-18
      1.27757077255497E-01
      0.00000000000000E+00   1.21003269266996E-10   0.00000000000000E+00   0.00000000000000E+00  -5.60620177336005E-10
      5.34790175858177E-34  -5.60620177336005E-10   5.32738048412361E-18   0.00000000000000E+00   0.00000000000000E+00
      0.00000000000000E+00   0.00000000000000E+00   0.00000000000000E+00   0.00000000000000E+00   0.00000000000000E+00
      4.34712278779524E-18   0.00000000000000E+00   0.00000000000000E+00   0.00000000000000E+00   0.00000000000000E+00
      9.37354920968591E-17  -9.66653017368915E-34   9.37354920968591E-17  -1.42678865704003E-17   6.38785386277483E-03
      6.38785374124165E-03   0.00000000000000E+00   0.00000000000000E+00   5.60620083600513E-10   4.31862841510739E-34
      5.60620083600513E-10   4.59338329848139E-18
      1.37757077255497E-01
      0.00000000000000E+00   1.28330879046411E-10   0.00000000000000E+00   0.00000000000000E+00  -5.94546157717315E-10
      5.25390497471173E-34  -5.94546157717315E-10   5.32723602874940E-18   0.00000000000000E+00   0.00000000000000E+00
      0.00000000000000E+00   0.00000000000000E+00   0.00000000000000E+00   0.00000000000000E+00   0.00000000000000E+00
      4.34076304245798E-18   0.00000000000000E+00   0.00000000000000E+00   0.00000000000000E+00   0.00000000000000E+00
      8.29774584644550E-17  -9.62640027340234E-34   8.29774584644550E-17  -1.42676380370504E-17   6.88785386277483E-03
      6.88785373388221E-03   0.00000000000000E+00   0.00000000000000E+00   5.94546074739856E-10   4.37249529869061E-34
      5.94546074739856E-10   4.59963896584298E-18
      1.47757077255497E-01
      0.00000000000000E+00   1.35388612580988E-10   0.00000000000000E+00   0.00000000000000E+00  -6.27219645515810E-10
      5.28694961857607E-34  -6.27219645515810E-10   5.32709158639685E-18   0.00000000000000E+00   0.00000000000000E+00
      0.00000000000000E+00   0.00000000000000E+00   0.00000000000000E+00   0.00000000000000E+00   0.00000000000000E+00
      4.33440402381153E-18   0.00000000000000E+00   0.00000000000000E+00   0.00000000000000E+00   0.00000000000000E+00
      8.15094562960223E-17  -9.23314119656009E-34   8.15094562960223E-17  -1.42673914115186E-17   7.38785386277483E-03
      7.38785372679383E-03   0.00000000000000E+00   0.00000000000000E+00   6.27219564006354E-10   3.94619157798402E-34
      6.27219564006354E-10   4.60589580131019E-18
      1.57757077255497E-01
      0.00000000000000E+00   1.42184735897074E-10   0.00000000000000E+00   0.00000000000000E+00  -6.58679193855223E-10
      5.32589930754865E-34  -6.58679193855223E-10   5.32694715693950E-18   0.00000000000000E+00   0.00000000000000E+00
      0.00000000000000E+00   0.00000000000000E+00   0.00000000000000E+00   0.00000000000000E+00   0.00000000000000E+00
      4.32804572608738E-18   0.00000000000000E+00   0.00000000000000E+00   0.00000000000000E+00   0.00000000000000E+00
      8.08648770347399E-17  -9.55411832820432E-34   8.08648770347399E-17  -1.42671466820213E-17   7.88785386277484E-03
      7.88785371996824E-03   0.00000000000000E+00   0.00000000000000E+00   6.58679112990346E-10   4.22821902065567E-34
      6.58679112990346E-10   4.61215379899439E-18
      1.67757077255497E-01
      0.00000000000000E+00   1.48727486060967E-10   0.00000000000000E+00   0.00000000000000E+00  -6.88963102593595E-10
      5.24105114527900E-34  -6.88963102593595E-10   5.32680274024922E-18   0.00000000000000E+00   0.00000000000000E+00
      0.00000000000000E+00   0.00000000000000E+00   0.00000000000000E+00   0.00000000000000E+00   0.00000000000000E+00
      4.32168814340456E-18   0.00000000000000E+00   0.00000000000000E+00   0.00000000000000E+00   0.00000000000000E+00
      7.94479010640958E-17  -9.34859273818132E-34   7.94479010640958E-17  -1.42669038366677E-17   8.38785386277484E-03
      8.38785371339714E-03   0.00000000000000E+00   0.00000000000000E+00   6.88963023145695E-10   4.10754159290232E-34
      6.88963023145695E-10   4.61841295301392E-18
      1.77757077255497E-01
      0.00000000000000E+00   1.55024887489437E-10   0.00000000000000E+00   0.00000000000000E+00  -7.18108835437146E-10
      5.36635653653521E-34  -7.18108835437146E-10   5.32665833619878E-18   0.00000000000000E+00   0.00000000000000E+00
      0.00000000000000E+00   0.00000000000000E+00   0.00000000000000E+00   0.00000000000000E+00   0.00000000000000E+00
      4.31533126997102E-18   0.00000000000000E+00   0.00000000000000E+00   0.00000000000000E+00   0.00000000000000E+00
      7.85999057940381E-17  -9.38240361638130E-34   7.85999057940381E-17  -1.42666628636981E-17   8.88785386277484E-03
      8.88785370707246E-03   0.00000000000000E+00   0.00000000000000E+00   7.18108756837240E-10   4.01604707984609E-34
      7.18108756837240E-10   4.62467325752830E-18
      1.87757077255497E-01
      0.00000000000000E+00   1.61084786701788E-10   0.00000000000000E+00   0.00000000000000E+00  -7.46153012699635E-10
      5.44479716302730E-34  -7.46153012699635E-10   5.32651394466176E-18   0.00000000000000E+00   0.00000000000000E+00
      0.00000000000000E+00   0.00000000000000E+00   0.00000000000000E+00   0.00000000000000E+00   0.00000000000000E+00
      4.30897510007513E-18   0.00000000000000E+00   0.00000000000000E+00   0.00000000000000E+00   0.00000000000000E+00
      7.77876158374300E-17  -9.27276451432903E-34   7.77876158374300E-17  -1.42664237514746E-17   9.38785386277484E-03
      9.38785370098630E-03   0.00000000000000E+00   0.00000000000000E+00   7.46152934912019E-10   3.82796735130172E-34
      7.46152934912019E-10   4.63093470673766E-18
      1.97757077255497E-01
      0.00000000000000E+00   1.66914881279915E-10   0.00000000000000E+00   0.00000000000000E+00  -7.73131448283247E-10