DF-ISE text

Info {
  version   = 1.0
  type      = xyplot
  datasets  = [
    "time"
    "source OuterVoltage" "source InnerVoltage" "source QuasiFermiPotential" "source DisplacementCurrent" "source eCurrent"
    "source hCurrent" "source TotalCurrent" "source Charge" "gate OuterVoltage" "gate InnerVoltage"
    "gate QuasiFermiPotential" "gate DisplacementCurrent" "gate eCurrent" "gate hCurrent" "gate TotalCurrent"
    "gate Charge" "substrate OuterVoltage" "substrate InnerVoltage" "substrate QuasiFermiPotential" "substrate DisplacementCurrent"
    "substrate eCurrent" "substrate hCurrent" "substrate TotalCurrent" "substrate Charge" "drain OuterVoltage"
    "drain InnerVoltage" "drain QuasiFermiPotential" "drain DisplacementCurrent" "drain eCurrent" "drain hCurrent"
    "drain TotalCurrent" "drain Charge" ]
  functions = [
    Time
    OuterVoltage InnerVoltage QuasiFermiPotential DisplacementCurrent eCurrent
    hCurrent TotalCurrent Charge OuterVoltage InnerVoltage
    QuasiFermiPotential DisplacementCurrent eCurrent hCurrent TotalCurrent
    Charge OuterVoltage InnerVoltage QuasiFermiPotential DisplacementCurrent
    eCurrent hCurrent TotalCurrent Charge OuterVoltage
    InnerVoltage QuasiFermiPotential DisplacementCurrent eCurrent hCurrent
    TotalCurrent Charge ]
}

Data {
      0.00000000000000E+00
      0.00000000000000E+00   0.00000000000000E+00   0.00000000000000E+00   0.00000000000000E+00  -7.34218398980616E-23
      5.63692677874932E-34  -7.34218398974979E-23   4.45288794208109E-18   0.00000000000000E+00   0.00000000000000E+00
      0.00000000000000E+00   0.00000000000000E+00   0.00000000000000E+00   0.00000000000000E+00   0.00000000000000E+00
      3.23380606942370E-18   0.00000000000000E+00   0.00000000000000E+00   0.00000000000000E+00   0.00000000000000E+00
      3.97649536005746E-22  -1.11475531094711E-33   3.97649536004631E-22  -1.13539125292620E-17   0.00000000000000E+00
      0.00000000000000E+00   0.00000000000000E+00   0.00000000000000E+00  -3.24227696107684E-22   5.51062633072179E-34
     -3.24227696107133E-22   3.66721851775721E-18
      0.00000000000000E+00
      0.00000000000000E+00   0.00000000000000E+00   0.00000000000000E+00   0.00000000000000E+00  -1.93863384723687E-20
      5.77412322443103E-34  -1.93863384723682E-20   4.45147129226524E-18   0.00000000000000E+00   0.00000000000000E+00
      0.00000000000000E+00   0.00000000000000E+00   0.00000000000000E+00   0.00000000000000E+00   0.00000000000000E+00
      3.22854297810674E-18   0.00000000000000E+00   0.00000000000000E+00   0.00000000000000E+00   0.00000000000000E+00
      2.91259577735184E-20  -1.11037187743316E-33   2.91259577735173E-20  -1.13462454023537E-17   0.00000000000000E+00
      0.00000000000000E+00   0.00000000000000E+00   0.00000000000000E+00  -9.73961930114965E-21   5.32959554990063E-34
     -9.73961930114912E-21   3.66623113198172E-18
      1.00000000000000E-03
      0.00000000000000E+00   1.74127695668282E-12   0.00000000000000E+00   0.00000000000000E+00  -7.90637178471235E-12
      5.61807413826735E-34  -7.90637178471235E-12   4.45145698734636E-18   0.00000000000000E+00   0.00000000000000E+00
      0.00000000000000E+00   0.00000000000000E+00   0.00000000000000E+00   0.00000000000000E+00   0.00000000000000E+00
      3.22798954074437E-18   0.00000000000000E+00   0.00000000000000E+00   0.00000000000000E+00   0.00000000000000E+00
     -9.24174967514490E-20  -1.09217454823679E-33  -9.24174967514501E-20  -1.13462246922385E-17   5.00000000000000E-05
      4.99999982489116E-05   0.00000000000000E+00   0.00000000000000E+00   7.90637187712984E-12   5.30367134410056E-34
      7.90637187712984E-12   3.66677816414779E-18
      2.09333333333333E-03
      0.00000000000000E+00   3.63927069918040E-12   0.00000000000000E+00   0.00000000000000E+00  -1.65242680119695E-11
      5.71326004472237E-34  -1.65242680119695E-11   4.45144134752134E-18   0.00000000000000E+00   0.00000000000000E+00
      0.00000000000000E+00   0.00000000000000E+00   0.00000000000000E+00   0.00000000000000E+00   0.00000000000000E+00
      3.22738445811747E-18   0.00000000000000E+00   0.00000000000000E+00   0.00000000000000E+00   0.00000000000000E+00
      2.36696758530018E-20  -1.08456517366983E-33   2.36696758530007E-20  -1.13462020702036E-17   1.04666666666667E-04
      1.04666663006898E-04   0.00000000000000E+00   0.00000000000000E+00   1.65242679882998E-11   5.13239169197594E-34
      1.65242679882998E-11   3.66737626456482E-18
      3.29600000000000E-03
      0.00000000000000E+00   5.71978446447021E-12   0.00000000000000E+00   0.00000000000000E+00  -2.59709021853366E-11
      5.68728081000480E-34  -2.59709021853366E-11   4.45142414398006E-18   0.00000000000000E+00   0.00000000000000E+00
      0.00000000000000E+00   0.00000000000000E+00   0.00000000000000E+00   0.00000000000000E+00   0.00000000000000E+00
      3.22671887794353E-18   0.00000000000000E+00   0.00000000000000E+00   0.00000000000000E+00   0.00000000000000E+00
      1.67249667031825E-20  -1.07908190842556E-33   1.67249667031814E-20  -1.13461772113116E-17   1.64800000000000E-04
      1.64799994247996E-04   0.00000000000000E+00   0.00000000000000E+00   2.59709021686117E-11   5.10353827425079E-34
      2.59709021686117E-11   3.66803418938807E-18
      4.61893333333333E-03
      0.00000000000000E+00   7.99936627824738E-12   0.00000000000000E+00   0.00000000000000E+00  -3.63213893194014E-11
      5.75834584131684E-34  -3.63213893194014E-11   4.45140522040761E-18   0.00000000000000E+00   0.00000000000000E+00
      0.00000000000000E+00   0.00000000000000E+00   0.00000000000000E+00   0.00000000000000E+00   0.00000000000000E+00
      3.22598675270547E-18   0.00000000000000E+00   0.00000000000000E+00   0.00000000000000E+00   0.00000000000000E+00
      3.00484389488611E-20  -1.10751400811744E-33   3.00484389488600E-20  -1.13461498971739E-17   2.30946666666667E-04
      2.30946658622249E-04   0.00000000000000E+00   0.00000000000000E+00   3.63213892893530E-11   5.31679423985756E-34
      3.63213892893530E-11   3.66875792406084E-18
      6.07416000000000E-03
      0.00000000000000E+00   1.04958859317729E-11   0.00000000000000E+00   0.00000000000000E+00  -4.76568516482317E-11
      5.63985496151636E-34  -4.76568516482317E-11   4.45138440486927E-18   0.00000000000000E+00   0.00000000000000E+00
      0.00000000000000E+00   0.00000000000000E+00   0.00000000000000E+00   0.00000000000000E+00   0.00000000000000E+00
      3.22518143060006E-18   0.00000000000000E+00   0.00000000000000E+00   0.00000000000000E+00   0.00000000000000E+00
      3.53709872975456E-21  -1.08469381555699E-33   3.53709872975348E-21  -1.13461198886669E-17   3.03708000000000E-04
      3.03707989444995E-04   0.00000000000000E+00   0.00000000000000E+00   4.76568516446946E-11   5.20708319405356E-34
      4.76568516446946E-11   3.66955405319758E-18
      7.67490933333333E-03
      0.00000000000000E+00   1.32285983034007E-11   0.00000000000000E+00   0.00000000000000E+00  -6.00646444689042E-11
      5.98372299866089E-34  -6.00646444689042E-11   4.45136150825104E-18   0.00000000000000E+00   0.00000000000000E+00
      0.00000000000000E+00   0.00000000000000E+00   0.00000000000000E+00   0.00000000000000E+00   0.00000000000000E+00
      3.22429559520566E-18   0.00000000000000E+00   0.00000000000000E+00   0.00000000000000E+00   0.00000000000000E+00
      1.36133669427507E-21  -1.13062439740906E-33   1.36133669427394E-21  -1.13460869240877E-17   3.83745466666667E-04
      3.83745453363558E-04   0.00000000000000E+00   0.00000000000000E+00   6.00646444675429E-11   5.32252097542969E-34
      6.00646444675429E-11   3.67042982063104E-18
      9.43573360000000E-03
      0.00000000000000E+00   1.62181536269330E-11   0.00000000000000E+00   0.00000000000000E+00  -7.36385669303371E-11
      5.69107536218384E-34  -7.36385669303371E-11   4.45133632254471E-18   0.00000000000000E+00   0.00000000000000E+00
      0.00000000000000E+00   0.00000000000000E+00   0.00000000000000E+00   0.00000000000000E+00   0.00000000000000E+00
      3.22332119913658E-18   0.00000000000000E+00   0.00000000000000E+00   0.00000000000000E+00   0.00000000000000E+00
      1.08268119308670E-20  -1.08647367558272E-33   1.08268119308659E-20  -1.13460507171726E-17   4.71786680000000E-04
      4.71786663690508E-04   0.00000000000000E+00   0.00000000000000E+00   7.36385669195103E-11   5.17366139364341E-34
      7.36385669195103E-11   3.67139319549134E-18
      1.13726402933333E-02
      0.00000000000000E+00   1.94866705110391E-11   0.00000000000000E+00   0.00000000000000E+00  -8.84790256946399E-11
      5.62970424091933E-34  -8.84790256946399E-11   4.45130861896200E-18   0.00000000000000E+00   0.00000000000000E+00
      0.00000000000000E+00   0.00000000000000E+00   0.00000000000000E+00   0.00000000000000E+00   0.00000000000000E+00
      3.22224939108670E-18   0.00000000000000E+00   0.00000000000000E+00   0.00000000000000E+00   0.00000000000000E+00
      2.63822267593202E-20  -1.09693914356506E-33   2.63822267593191E-20  -1.13460109549739E-17   5.68632014666667E-04
      5.68631995070247E-04   0.00000000000000E+00   0.00000000000000E+00   8.84790256682577E-11   5.33968719473130E-34
      8.84790256682577E-11   3.67245294492527E-18
      1.35032376560000E-02
      0.00000000000000E+00   2.30577507713244E-11   0.00000000000000E+00   0.00000000000000E+00  -1.04693128424466E-10
      5.68606651385304E-34  -1.04693128424466E-10   4.45127814586089E-18   0.00000000000000E+00   0.00000000000000E+00
      0.00000000000000E+00   0.00000000000000E+00   0.00000000000000E+00   0.00000000000000E+00   0.00000000000000E+00
      3.22107043560570E-18   0.00000000000000E+00   0.00000000000000E+00   0.00000000000000E+00   0.00000000000000E+00
      5.34878206533987E-20  -1.10248327633042E-33   5.34878206533976E-20  -1.13459672955930E-17   6.75161882800000E-04
      6.75161859612388E-04   0.00000000000000E+00   0.00000000000000E+00   1.04693128370978E-10   5.33876624945115E-34
      1.04693128370978E-10   3.67361871412646E-18
      1.58468947549333E-02
      0.00000000000000E+00   2.69564640277973E-11   0.00000000000000E+00   0.00000000000000E+00  -1.22394681202838E-10
      5.48630531766869E-34  -1.22394681202838E-10   4.45124462646537E-18   0.00000000000000E+00   0.00000000000000E+00
      0.00000000000000E+00   0.00000000000000E+00   0.00000000000000E+00   0.00000000000000E+00   0.00000000000000E+00
      3.21977362488777E-18   0.00000000000000E+00   0.00000000000000E+00   0.00000000000000E+00   0.00000000000000E+00
      4.52978604733698E-20  -1.08837581887240E-33   4.52978604733688E-20  -1.13459193657691E-17   7.92344737746667E-04
      7.92344710638387E-04   0.00000000000000E+00   0.00000000000000E+00   1.22394681157540E-10   5.39745287105533E-34
      1.22394681157540E-10   3.67490111441598E-18
      1.84249175637600E-02
      0.00000000000000E+00   3.12093442820833E-11   0.00000000000000E+00   0.00000000000000E+00  -1.41704062192942E-10
      5.65690902413869E-34  -1.41704062192942E-10   4.45120775635823E-18   0.00000000000000E+00   0.00000000000000E+00
      0.00000000000000E+00   0.00000000000000E+00   0.00000000000000E+00   0.00000000000000E+00   0.00000000000000E+00
      3.21834718177990E-18   0.00000000000000E+00   0.00000000000000E+00   0.00000000000000E+00   0.00000000000000E+00
      1.19684016967097E-19  -1.08756507400515E-33   1.19684016967096E-19  -1.13458667583253E-17   9.21245878188001E-04
      9.21245846802887E-04   0.00000000000000E+00   0.00000000000000E+00   1.41704062073258E-10   5.21874171591280E-34
      1.41704062073258E-10   3.67631182018714E-18
      2.12607426534693E-02
      0.00000000000000E+00   3.58442906566538E-11   0.00000000000000E+00   0.00000000000000E+00  -1.62747936888337E-10
      5.72759295811848E-34  -1.62747936888337E-10   4.45116720072448E-18   0.00000000000000E+00   0.00000000000000E+00
      0.00000000000000E+00   0.00000000000000E+00   0.00000000000000E+00   0.00000000000000E+00   0.00000000000000E+00
      3.21677815314080E-18   0.00000000000000E+00   0.00000000000000E+00   0.00000000000000E+00   0.00000000000000E+00
      1.64953662830788E-19  -1.10186668447234E-33   1.64953662830787E-19  -1.13458090294783E-17   1.06303713267347E-03
      1.06303709662730E-03   0.00000000000000E+00   0.00000000000000E+00   1.62747936723383E-10   5.29107388660495E-34
      1.62747936723383E-10   3.67786367561307E-18
      2.43801502521496E-02
      0.00000000000000E+00   4.08905052142270E-11   0.00000000000000E+00   0.00000000000000E+00  -1.85658777740500E-10
      5.58466399498050E-34  -1.85658777740500E-10   4.45112259132054E-18   0.00000000000000E+00   0.00000000000000E+00
      0.00000000000000E+00   0.00000000000000E+00   0.00000000000000E+00   0.00000000000000E+00   0.00000000000000E+00
      3.21505229259410E-18   0.00000000000000E+00   0.00000000000000E+00   0.00000000000000E+00   0.00000000000000E+00
      3.09906420367891E-19  -1.08309537447128E-33   3.09906420367890E-19  -1.13457456960208E-17   1.21900751260748E-03
      1.21900747148669E-03   0.00000000000000E+00   0.00000000000000E+00   1.85658777430593E-10   5.24628974973225E-34
      1.85658777430593E-10   3.67957081210622E-18
      2.78114986106979E-02
      0.00000000000000E+00   4.63783007113309E-11   0.00000000000000E+00   0.00000000000000E+00  -2.10574140620021E-10
      5.47077717273319E-34  -2.10574140620021E-10   4.45107352314196E-18   0.00000000000000E+00   0.00000000000000E+00
      0.00000000000000E+00   0.00000000000000E+00   0.00000000000000E+00   0.00000000000000E+00   0.00000000000000E+00
      3.21315393162849E-18   0.00000000000000E+00   0.00000000000000E+00   0.00000000000000E+00   0.00000000000000E+00
      4.88777155333100E-19  -1.06116945858604E-33   4.88777155333099E-19  -1.13456762323932E-17   1.39057493053490E-03
      1.39057488389540E-03   0.00000000000000E+00   0.00000000000000E+00   2.10574140131243E-10   5.14091741312722E-34
      2.10574140131243E-10   3.68144877762277E-18
      3.15859818051010E-02
      0.00000000000000E+00   5.23388980835098E-11   0.00000000000000E+00   0.00000000000000E+00  -2.37635648657194E-10
      5.58036011798744E-34  -2.37635648657194E-10   4.45101955076057E-18   0.00000000000000E+00   0.00000000000000E+00
      0.00000000000000E+00   0.00000000000000E+00   0.00000000000000E+00   0.00000000000000E+00   0.00000000000000E+00
      3.21106583789256E-18   0.00000000000000E+00   0.00000000000000E+00   0.00000000000000E+00   0.00000000000000E+00
     -9.67745487741878E-18  -1.09145236628816E-33  -9.67745487741878E-18  -1.13456000676679E-17   1.57929909025505E-03
      1.57929903762139E-03   0.00000000000000E+00   0.00000000000000E+00   2.37635658334649E-10   5.33416354489413E-34
      2.37635658334649E-10   3.68351467901474E-18
      3.57379133189445E-02
      0.00000000000000E+00   5.88041052739762E-11   0.00000000000000E+00   0.00000000000000E+00  -2.66987624402507E-10
      5.80030543767230E-34  -2.66987624402507E-10   4.45096018429719E-18   0.00000000000000E+00   0.00000000000000E+00
      0.00000000000000E+00   0.00000000000000E+00   0.00000000000000E+00   0.00000000000000E+00   0.00000000000000E+00
      3.20876905941828E-18   0.00000000000000E+00   0.00000000000000E+00   0.00000000000000E+00   0.00000000000000E+00
      1.34017161337378E-18  -1.09604529289070E-33   1.34017161337377E-18  -1.13455165824730E-17   1.78689566594722E-03
      1.78689560681194E-03   0.00000000000000E+00   0.00000000000000E+00   2.66987623062336E-10   5.16014749123475E-34
      2.66987623062336E-10   3.68578733875754E-18
      4.03050379841723E-02
      0.00000000000000E+00   6.58059492841979E-11   0.00000000000000E+00   0.00000000000000E+00  -2.98775309735393E-10
      5.68550531932633E-34  -2.98775309735393E-10   4.45089488499508E-18   0.00000000000000E+00   0.00000000000000E+00
      0.00000000000000E+00   0.00000000000000E+00   0.00000000000000E+00   0.00000000000000E+00   0.00000000000000E+00
      3.20624275338867E-18   0.00000000000000E+00   0.00000000000000E+00   0.00000000000000E+00   0.00000000000000E+00
      1.69336322921206E-18  -1.08455018613667E-33   1.69336322921206E-18  -1.13454251059041E-17   2.01525189920861E-03
      2.01525183303204E-03   0.00000000000000E+00   0.00000000000000E+00   2.98775308042030E-10   5.15999654204036E-34
      2.98775308042030E-10   3.68828746752039E-18
      4.53288751159228E-02
      0.00000000000000E+00   7.33761684607542E-11   0.00000000000000E+00   0.00000000000000E+00  -3.33142610468469E-10
      5.62042919517232E-34  -3.33142610468469E-10   4.45082306035441E-18   0.00000000000000E+00   0.00000000000000E+00
      0.00000000000000E+00   0.00000000000000E+00   0.00000000000000E+00   0.00000000000000E+00   0.00000000000000E+00
      3.20346399792592E-18   0.00000000000000E+00   0.00000000000000E+00   0.00000000000000E+00   0.00000000000000E+00
      1.94467822351221E-17  -1.06064827784695E-33   1.94467822351221E-17  -1.13453249124760E-17   2.26644375579614E-03
      2.26644368200670E-03   0.00000000000000E+00   0.00000000000000E+00   3.33142591021687E-10   4.98605358329720E-34
      3.33142591021687E-10   3.69103785419564E-18
      5.08550959608485E-02
      0.00000000000000E+00   8.15455924007439E-11   0.00000000000000E+00   0.00000000000000E+00  -3.70229183034805E-10
      5.67557754937471E-34  -3.70229183034805E-10   4.45074405878398E-18   0.00000000000000E+00   0.00000000000000E+00
      0.00000000000000E+00   0.00000000000000E+00   0.00000000000000E+00   0.00000000000000E+00   0.00000000000000E+00
      3.20040758522753E-18   0.00000000000000E+00   0.00000000000000E+00   0.00000000000000E+00   0.00000000000000E+00
      3.75026558140974E-18  -1.04601900717058E-33   3.75026558140974E-18  -1.13452152191840E-17   2.54275479804242E-03
      2.54275471603752E-03   0.00000000000000E+00   0.00000000000000E+00   3.70229179284539E-10   4.78461252233109E-34
      3.70229179284539E-10   3.69406357517245E-18
      5.69339388902666E-02
      0.00000000000000E+00   9.03433518588595E-11   0.00000000000000E+00   0.00000000000000E+00  -4.10167152120470E-10
      5.52916335833799E-34  -4.10167152120470E-10   4.45065716372320E-18   0.00000000000000E+00   0.00000000000000E+00
      0.00000000000000E+00   0.00000000000000E+00   0.00000000000000E+00   0.00000000000000E+00   0.00000000000000E+00
      3.19704579421241E-18   0.00000000000000E+00   0.00000000000000E+00   0.00000000000000E+00   0.00000000000000E+00
      5.56485013050656E-18  -1.05027280497827E-33   5.56485013050656E-18  -1.13450951827583E-17   2.84669694451333E-03
      2.84669685366108E-03   0.00000000000000E+00   0.00000000000000E+00   4.10167146555620E-10   4.97356469144466E-34
      4.10167146555620E-10   3.69739222482268E-18
      6.36206661126266E-02
      0.00000000000000E+00   9.97960042257593E-11   0.00000000000000E+00   0.00000000000000E+00  -4.53076762334673E-10
      5.47827825437018E-34  -4.53076762334673E-10   4.45056158718240E-18   0.00000000000000E+00   0.00000000000000E+00
      0.00000000000000E+00   0.00000000000000E+00   0.00000000000000E+00   0.00000000000000E+00   0.00000000000000E+00
      3.19334814067962E-18   0.00000000000000E+00   0.00000000000000E+00   0.00000000000000E+00   0.00000000000000E+00
      3.35200566108595E-18  -1.03837981862314E-33   3.35200566108595E-18  -1.13449638972466E-17   3.18103330563133E-03
      3.18103320527314E-03   0.00000000000000E+00   0.00000000000000E+00   4.53076758982668E-10   4.90551993186120E-34
      4.53076758982668E-10   3.70105416938450E-18
      7.09760660572226E-02
      0.00000000000000E+00   1.09926441089112E-10   0.00000000000000E+00   0.00000000000000E+00  -4.99061526596553E-10
      5.58355577210016E-34  -4.99061526596553E-10   4.45045646264381E-18   0.00000000000000E+00   0.00000000000000E+00
      0.00000000000000E+00   0.00000000000000E+00   0.00000000000000E+00   0.00000000000000E+00   0.00000000000000E+00
      3.18928110275604E-18   0.00000000000000E+00   0.00000000000000E+00   0.00000000000000E+00   0.00000000000000E+00
      1.20834411080219E-17  -1.03974245399948E-33   1.20834411080219E-17  -1.13448203920371E-17   3.54880330286113E-03
      3.54880319231537E-03   0.00000000000000E+00   0.00000000000000E+00   4.99061514513112E-10   4.81386876789461E-34
      4.99061514513112E-10   3.70508282663720E-18
      7.90670059962782E-02
      0.00000000000000E+00   1.20752579588707E-10   0.00000000000000E+00   0.00000000000000E+00  -5.48202442246485E-10
      5.42934817855497E-34  -5.48202442246485E-10   4.45034083726072E-18   0.00000000000000E+00   0.00000000000000E+00
      0.00000000000000E+00   0.00000000000000E+00   0.00000000000000E+00   0.00000000000000E+00   0.00000000000000E+00
      3.18480781922811E-18   0.00000000000000E+00   0.00000000000000E+00   0.00000000000000E+00   0.00000000000000E+00
      2.45843267470796E-17  -9.93485142811893E-34   2.45843267470796E-17  -1.13446636305230E-17   3.95335029981391E-03
      3.95335017838094E-03   0.00000000000000E+00   0.00000000000000E+00   5.48202417662159E-10   4.50550324956396E-34
      5.48202417662159E-10   3.70951497403415E-18
      8.79670399292394E-02
      0.00000000000000E+00   1.32285948235690E-10   0.00000000000000E+00   0.00000000000000E+00  -6.00551345148346E-10
      5.27076941028616E-34  -6.00551345148346E-10   4.45021366328569E-18   0.00000000000000E+00   0.00000000000000E+00
      0.00000000000000E+00   0.00000000000000E+00   0.00000000000000E+00   0.00000000000000E+00   0.00000000000000E+00
      3.17988775808497E-18   0.00000000000000E+00   0.00000000000000E+00   0.00000000000000E+00   0.00000000000000E+00
      2.55855931846492E-17  -9.84679611152238E-34   2.55855931846492E-17  -1.13444925095866E-17   4.39835199646197E-03
      4.39835186343053E-03   0.00000000000000E+00   0.00000000000000E+00   6.00551319562753E-10   4.57602670123621E-34
      6.00551319562753E-10   3.71439108821596E-18
      9.77570772554967E-02
      0.00000000000000E+00   1.44530032566360E-10   0.00000000000000E+00   0.00000000000000E+00  -6.56123579362340E-10
      5.60996826380419E-34  -6.56123579362340E-10   4.45007378865153E-18   0.00000000000000E+00   0.00000000000000E+00
      0.00000000000000E+00   0.00000000000000E+00   0.00000000000000E+00   0.00000000000000E+00   0.00000000000000E+00
      3.17447635235236E-18   0.00000000000000E+00   0.00000000000000E+00   0.00000000000000E+00   0.00000000000000E+00
      3.71112197713094E-17  -1.01191744016307E-33   3.71112197713094E-17  -1.13443058601531E-17   4.88785386277484E-03
      4.88785371743018E-03   0.00000000000000E+00   0.00000000000000E+00   6.56123542251120E-10   4.50920613782656E-34
      6.56123542251120E-10   3.71975571914921E-18
      1.07757077255497E-01
      0.00000000000000E+00   1.56571417273406E-10   0.00000000000000E+00   0.00000000000000E+00  -7.10773235337509E-10
      5.64499295262015E-34  -7.10773235337509E-10   4.44993093213201E-18   0.00000000000000E+00   0.00000000000000E+00
      0.00000000000000E+00   0.00000000000000E+00   0.00000000000000E+00   0.00000000000000E+00   0.00000000000000E+00
      3.16894960053686E-18   0.00000000000000E+00   0.00000000000000E+00   0.00000000000000E+00   0.00000000000000E+00
      4.28688258822402E-17  -9.99064355995179E-34   4.28688258822402E-17  -1.13441169095247E-17   5.38785386277483E-03
      5.38785370532077E-03   0.00000000000000E+00   0.00000000000000E+00   7.10773192468682E-10   4.34565060733164E-34
      7.10773192468682E-10   3.72523637685584E-18
      1.17757077255497E-01
      0.00000000000000E+00   1.68156778028148E-10   0.00000000000000E+00   0.00000000000000E+00  -7.63350645346452E-10
      5.80992961144362E-34  -7.63350645346452E-10   4.44978809357831E-18   0.00000000000000E+00   0.00000000000000E+00
      0.00000000000000E+00   0.00000000000000E+00   0.00000000000000E+00   0.00000000000000E+00   0.00000000000000E+00
      3.16342356037101E-18   0.00000000000000E+00   0.00000000000000E+00   0.00000000000000E+00   0.00000000000000E+00
      4.30679027052202E-17  -1.00363441131688E-33   4.30679027052202E-17  -1.13439296671219E-17   5.88785386277483E-03
      5.88785369366995E-03   0.00000000000000E+00   0.00000000000000E+00   7.63350602278550E-10   4.22641450172518E-34
      7.63350602278550E-10   3.73071801317263E-18
      1.27757077255497E-01
      0.00000000000000E+00   1.79300249222222E-10   0.00000000000000E+00   0.00000000000000E+00  -8.13920285954713E-10
      5.81852673325832E-34  -8.13920285954713E-10   4.44964527281956E-18   0.00000000000000E+00   0.00000000000000E+00
      0.00000000000000E+00   0.00000000000000E+00   0.00000000000000E+00   0.00000000000000E+00   0.00000000000000E+00
      3.15789822603428E-18   0.00000000000000E+00   0.00000000000000E+00   0.00000000000000E+00   0.00000000000000E+00
      4.23220904401945E-17  -1.01746118490536E-33   4.23220904401945E-17  -1.13437441213765E-17   6.38785386277483E-03
      6.38785368246346E-03   0.00000000000000E+00   0.00000000000000E+00   8.13920243632622E-10   4.35608511579528E-34
      8.13920243632622E-10   3.73620062252267E-18
      1.37757077255497E-01
      0.00000000000000E+00   1.90015854006749E-10   0.00000000000000E+00   0.00000000000000E+00  -8.62545967368271E-10
      5.54232353413042E-34  -8.62545967368271E-10   4.44950246968398E-18   0.00000000000000E+00   0.00000000000000E+00
      0.00000000000000E+00   0.00000000000000E+00   0.00000000000000E+00   0.00000000000000E+00   0.00000000000000E+00
      3.15237359174653E-18   0.00000000000000E+00   0.00000000000000E+00   0.00000000000000E+00   0.00000000000000E+00
      3.97068273152355E-17  -9.79833504395531E-34   3.97068273152355E-17  -1.13435602608040E-17   6.88785386277483E-03
      6.88785367168723E-03   0.00000000000000E+00   0.00000000000000E+00   8.62545927661444E-10   4.25601150982490E-34
      8.62545927661444E-10   3.74168419937351E-18
      1.47757077255497E-01
      0.00000000000000E+00   2.00317360535346E-10   0.00000000000000E+00   0.00000000000000E+00  -9.09290401715629E-10
      5.60040298245818E-34  -9.09290401715629E-10   4.44935968400149E-18   0.00000000000000E+00   0.00000000000000E+00
      0.00000000000000E+00   0.00000000000000E+00   0.00000000000000E+00   0.00000000000000E+00   0.00000000000000E+00
      3.14684965185649E-18   0.00000000000000E+00   0.00000000000000E+00   0.00000000000000E+00   0.00000000000000E+00
      4.09180669988151E-17  -9.68193974978943E-34   4.09180669988151E-17  -1.13433780741127E-17   7.38785386277483E-03
      7.38785366132739E-03   0.00000000000000E+00   0.00000000000000E+00   9.09290360797562E-10   4.08153676733124E-34
      9.09290360797562E-10   3.74716873825469E-18
      1.57757077255497E-01
      0.00000000000000E+00   2.10218371527011E-10   0.00000000000000E+00   0.00000000000000E+00  -9.54215457081830E-10
      5.73466731420459E-34  -9.54215457081830E-10   4.44921691559811E-18   0.00000000000000E+00   0.00000000000000E+00
      0.00000000000000E+00   0.00000000000000E+00   0.00000000000000E+00   0.00000000000000E+00   0.00000000000000E+00
      3.14132640061101E-18   0.00000000000000E+00   0.00000000000000E+00   0.00000000000000E+00   0.00000000000000E+00
      4.02144265170219E-17  -9.91975434504896E-34   4.02144265170219E-17  -1.13431975498622E-17   7.88785386277484E-03
      7.88785365137030E-03   0.00000000000000E+00   0.00000000000000E+00   9.54215416867403E-10   4.18508703084438E-34
      9.54215416867403E-10   3.75265423365314E-18
      1.67757077255497E-01
      0.00000000000000E+00   2.19732171381715E-10   0.00000000000000E+00   0.00000000000000E+00  -9.97381727276900E-10
      5.42920005758977E-34  -9.97381727276900E-10   4.44907416430152E-18   0.00000000000000E+00   0.00000000000000E+00
      0.00000000000000E+00   0.00000000000000E+00   0.00000000000000E+00   0.00000000000000E+00   0.00000000000000E+00
      3.13580383235551E-18   0.00000000000000E+00   0.00000000000000E+00   0.00000000000000E+00   0.00000000000000E+00
      3.95194068164793E-17  -9.63939656436085E-34   3.95194068164793E-17  -1.13430186767793E-17   8.38785386277484E-03
      8.38785364180257E-03   0.00000000000000E+00   0.00000000000000E+00   9.97381687757493E-10   4.21019650677108E-34
      9.97381687757493E-10   3.75814068012228E-18
      1.77757077255497E-01
      0.00000000000000E+00   2.28871775240325E-10   0.00000000000000E+00   0.00000000000000E+00  -1.03884848445468E-09
      5.73046278144402E-34  -1.03884848445468E-09   4.44893142994081E-18   0.00000000000000E+00   0.00000000000000E+00
      0.00000000000000E+00   0.00000000000000E+00   0.00000000000000E+00   0.00000000000000E+00   0.00000000000000E+00
      3.13028194151871E-18   0.00000000000000E+00   0.00000000000000E+00   0.00000000000000E+00   0.00000000000000E+00
      4.58471295447910E-17  -9.74636563835055E-34   4.58471295447910E-17  -1.13428414437297E-17   8.88785386277484E-03
      8.88785363261111E-03   0.00000000000000E+00   0.00000000000000E+00   1.03884843860755E-09   4.01590285690654E-34
      1.03884843860755E-09   3.76362807227014E-18
      1.87757077255497E-01
      0.00000000000000E+00   2.37649940393884E-10   0.00000000000000E+00   0.00000000000000E+00  -1.07867367782593E-09
      5.57966886479140E-34  -1.07867367782593E-09   4.44878871234452E-18   0.00000000000000E+00   0.00000000000000E+00
      0.00000000000000E+00   0.00000000000000E+00   0.00000000000000E+00   0.00000000000000E+00   0.00000000000000E+00
      3.12476072254257E-18   0.00000000000000E+00   0.00000000000000E+00   0.00000000000000E+00   0.00000000000000E+00
      3.82599701807899E-17  -9.54891715504851E-34   3.82599701807899E-17  -1.13426658396052E-17   9.38785386277484E-03
      9.38785362378313E-03   0.00000000000000E+00   0.00000000000000E+00   1.07867363956596E-09   3.96924829025712E-34
      1.07867363956596E-09   3.76911640471811E-18
      1.97757077255497E-01
      0.00000000000000E+00   2.46079075579807E-10   0.00000000000000E+00   0.00000000000000E+00  -1.11691391828077E-09