DF-ISE text

Info {
  version   = 1.0
  type      = xyplot
  datasets  = [
    "time"
    "source OuterVoltage" "source InnerVoltage" "source QuasiFermiPotential" "source DisplacementCurrent" "source eCurrent"
    "source hCurrent" "source TotalCurrent" "source Charge" "gate OuterVoltage" "gate InnerVoltage"
    "gate QuasiFermiPotential" "gate DisplacementCurrent" "gate eCurrent" "gate hCurrent" "gate TotalCurrent"
    "gate Charge" "substrate OuterVoltage" "substrate InnerVoltage" "substrate QuasiFermiPotential" "substrate DisplacementCurrent"
    "substrate eCurrent" "substrate hCurrent" "substrate TotalCurrent" "substrate Charge" "drain OuterVoltage"
    "drain InnerVoltage" "drain QuasiFermiPotential" "drain DisplacementCurrent" "drain eCurrent" "drain hCurrent"
    "drain TotalCurrent" "drain Charge" ]
  functions = [
    Time
    OuterVoltage InnerVoltage QuasiFermiPotential DisplacementCurrent eCurrent
    hCurrent TotalCurrent Charge OuterVoltage InnerVoltage
    QuasiFermiPotential DisplacementCurrent eCurrent hCurrent TotalCurrent
    Charge OuterVoltage InnerVoltage QuasiFermiPotential DisplacementCurrent
    eCurrent hCurrent TotalCurrent Charge OuterVoltage
    InnerVoltage QuasiFermiPotential DisplacementCurrent eCurrent hCurrent
    TotalCurrent Charge ]
}

Data {
      0.00000000000000E+00
      0.00000000000000E+00   0.00000000000000E+00   0.00000000000000E+00   0.00000000000000E+00  -5.70214065654082E-22
     -1.35826651595511E-34  -5.70214065654218E-22   4.71357306030239E-18   0.00000000000000E+00   0.00000000000000E+00
      0.00000000000000E+00   0.00000000000000E+00   0.00000000000000E+00   0.00000000000000E+00   0.00000000000000E+00
      3.80797079445490E-18   0.00000000000000E+00   0.00000000000000E+00   0.00000000000000E+00   0.00000000000000E+00
      1.91704702389333E-21   2.98123658358545E-34   1.91704702389363E-21  -1.24439683706431E-17   0.00000000000000E+00
      0.00000000000000E+00   0.00000000000000E+00   0.00000000000000E+00  -1.34683295823925E-21  -1.62297006763034E-34
     -1.34683295823941E-21   3.92242451588578E-18
      0.00000000000000E+00
      0.00000000000000E+00   0.00000000000000E+00   0.00000000000000E+00   0.00000000000000E+00  -1.09053674504850E-20
     -1.19208759621357E-34  -1.09053674504852E-20   4.71200180272199E-18   0.00000000000000E+00   0.00000000000000E+00
      0.00000000000000E+00   0.00000000000000E+00   0.00000000000000E+00   0.00000000000000E+00   0.00000000000000E+00
      3.80237648846241E-18   0.00000000000000E+00   0.00000000000000E+00   0.00000000000000E+00   0.00000000000000E+00
      1.99704487358970E-21   3.01991996624560E-34   1.99704487359000E-21  -1.24356985854397E-17   0.00000000000000E+00
      0.00000000000000E+00   0.00000000000000E+00   0.00000000000000E+00   8.90832257689534E-21  -1.82783237003203E-34
      8.90832257689515E-21   3.92132029425528E-18
      1.00000000000000E-03
      0.00000000000000E+00   1.96417751965050E-11   0.00000000000000E+00   0.00000000000000E+00  -8.89589220082223E-11
     -1.62838634978055E-34  -8.89589220082223E-11   4.71173945018107E-18   0.00000000000000E+00   0.00000000000000E+00
      0.00000000000000E+00   0.00000000000000E+00   0.00000000000000E+00   0.00000000000000E+00   0.00000000000000E+00
      3.79283336498897E-18   0.00000000000000E+00   0.00000000000000E+00   0.00000000000000E+00   0.00000000000000E+00
      2.64815212825377E-20   3.20793034585969E-34   2.64815212825381E-20  -1.24354288909532E-17   8.60000000000000E-04
      8.59999980212951E-04   0.00000000000000E+00   0.00000000000000E+00   8.89589219817407E-11  -1.57954399607914E-34
      8.89589219817407E-11   3.93085607578318E-18
      2.08666666666667E-03
      0.00000000000000E+00   3.97440255340251E-11   0.00000000000000E+00   0.00000000000000E+00  -1.79996764318047E-10
     -1.38531469799662E-34  -1.79996764318047E-10   4.71145440942616E-18   0.00000000000000E+00   0.00000000000000E+00
      0.00000000000000E+00   0.00000000000000E+00   0.00000000000000E+00   0.00000000000000E+00   0.00000000000000E+00
      3.78246528730741E-18   0.00000000000000E+00   0.00000000000000E+00   0.00000000000000E+00   0.00000000000000E+00
      3.75273799345521E-16   3.16193725343614E-34   3.75273799345521E-16  -1.24351409687640E-17   1.79453333333333E-03
      1.79453329329507E-03   0.00000000000000E+00   0.00000000000000E+00   1.79996389044248E-10  -1.77662255543952E-34
      1.79996389044248E-10   3.94122127203041E-18
      3.28200000000000E-03
      0.00000000000000E+00   6.03866779090521E-11   0.00000000000000E+00   0.00000000000000E+00  -2.73471997152551E-10
     -1.73358183053594E-34  -2.73471997152551E-10   4.71114092286642E-18   0.00000000000000E+00   0.00000000000000E+00
      0.00000000000000E+00   0.00000000000000E+00   0.00000000000000E+00   0.00000000000000E+00   0.00000000000000E+00
      3.77106290878768E-18   0.00000000000000E+00   0.00000000000000E+00   0.00000000000000E+00   0.00000000000000E+00
      5.42024224227459E-16   3.21574917689354E-34   5.42024224227459E-16  -1.24348303655068E-17   2.82252000000000E-03
      2.82251993916619E-03   0.00000000000000E+00   0.00000000000000E+00   2.73471455128327E-10  -1.48216734635760E-34
      2.73471455128327E-10   3.95262653385272E-18
      4.59686666666667E-03
      0.00000000000000E+00   8.13904959082639E-11   0.00000000000000E+00   0.00000000000000E+00  -3.68570640019481E-10
     -1.33230977243378E-34  -3.68570640019481E-10   4.71079615702712E-18   0.00000000000000E+00   0.00000000000000E+00
      0.00000000000000E+00   0.00000000000000E+00   0.00000000000000E+00   0.00000000000000E+00   0.00000000000000E+00
      3.75852327487967E-18   0.00000000000000E+00   0.00000000000000E+00   0.00000000000000E+00   0.00000000000000E+00
     -1.27832677268927E-22   2.72127054142985E-34  -1.27832677268655E-22  -1.24344959932889E-17   3.95330533333333E-03
      3.95330525134026E-03   0.00000000000000E+00   0.00000000000000E+00   3.68570640019609E-10  -1.38896076899607E-34
      3.68570640019609E-10   3.96517656138213E-18
      6.03445422222222E-03
      0.00000000000000E+00   1.02429905715270E-10   0.00000000000000E+00   0.00000000000000E+00  -4.63818694426425E-10
     -1.24107916057963E-34  -4.63818694426425E-10   4.71041929462819E-18   0.00000000000000E+00   0.00000000000000E+00
      0.00000000000000E+00   0.00000000000000E+00   0.00000000000000E+00   0.00000000000000E+00   0.00000000000000E+00
      3.74481678502842E-18   0.00000000000000E+00   0.00000000000000E+00   0.00000000000000E+00   0.00000000000000E+00
     -1.42012781545668E-20   2.68768217042946E-34  -1.42012781545666E-20  -1.24341390208951E-17   5.18963063111111E-03
      5.18963052792240E-03   0.00000000000000E+00   0.00000000000000E+00   4.63818694440626E-10  -1.44660300984983E-34
      4.63818694440626E-10   3.97890294123841E-18
      7.60621661629630E-03
      0.00000000000000E+00   1.23291898536294E-10   0.00000000000000E+00   0.00000000000000E+00  -5.58250134476333E-10
     -1.44694460594609E-34  -5.58250134476333E-10   4.71000735378618E-18   0.00000000000000E+00   0.00000000000000E+00
      0.00000000000000E+00   0.00000000000000E+00   0.00000000000000E+00   0.00000000000000E+00   0.00000000000000E+00
      3.72983513416533E-18   0.00000000000000E+00   0.00000000000000E+00   0.00000000000000E+00   0.00000000000000E+00
     -2.28963863155498E-20   3.06717743973248E-34  -2.28963863155495E-20  -1.24337588491574E-17   6.54134629001482E-03
      6.54134616580890E-03   0.00000000000000E+00   0.00000000000000E+00   5.58250134499230E-10  -1.62023283378640E-34
      5.58250134499230E-10   3.99391636120594E-18
      9.32467683381729E-03
      0.00000000000000E+00   1.43748285276547E-10   0.00000000000000E+00   0.00000000000000E+00  -6.50831671883122E-10
     -1.43542699883343E-34  -6.50831671883122E-10   4.70955707631916E-18   0.00000000000000E+00   0.00000000000000E+00
      0.00000000000000E+00   0.00000000000000E+00   0.00000000000000E+00   0.00000000000000E+00   0.00000000000000E+00
      3.71346000286220E-18   0.00000000000000E+00   0.00000000000000E+00   0.00000000000000E+00   0.00000000000000E+00
      1.74973341224300E-20   2.77562824562489E-34   1.74973341224303E-20  -1.24333550696763E-17   8.01922207708287E-03
      8.01922193226797E-03   0.00000000000000E+00   0.00000000000000E+00   6.50831671865625E-10  -1.34020124679146E-34
      6.50831671865625E-10   4.01033799049493E-18
      1.12035266716402E-02
      0.00000000000000E+00   1.63560655592571E-10   0.00000000000000E+00   0.00000000000000E+00  -7.40484752646031E-10
     -1.23919116379015E-34  -7.40484752646031E-10   4.70906490217004E-18   0.00000000000000E+00   0.00000000000000E+00
      0.00000000000000E+00   0.00000000000000E+00   0.00000000000000E+00   0.00000000000000E+00   0.00000000000000E+00
      3.69556213480930E-18   0.00000000000000E+00   0.00000000000000E+00   0.00000000000000E+00   0.00000000000000E+00
     -5.71727385019374E-21   2.49955828057694E-34  -5.71727385019349E-21  -1.24329275176820E-17   9.63503293761060E-03
      9.63503277283515E-03   0.00000000000000E+00   0.00000000000000E+00   7.40484752651748E-10  -1.26036711678679E-34
      7.40484752651748E-10   4.02830048070264E-18
      1.32577358276600E-02
      0.00000000000000E+00   1.82487629682228E-10   0.00000000000000E+00   0.00000000000000E+00  -8.26118419787641E-10
     -1.47597818887308E-34  -8.26118419787641E-10   4.70852694143596E-18   0.00000000000000E+00   0.00000000000000E+00
      0.00000000000000E+00   0.00000000000000E+00   0.00000000000000E+00   0.00000000000000E+00   0.00000000000000E+00
      3.67600032871766E-18   0.00000000000000E+00   0.00000000000000E+00   0.00000000000000E+00   0.00000000000000E+00
     -1.35770055114528E-20   2.66220103531158E-34  -1.35770055114525E-20  -1.24324763328426E-17   1.14016528117876E-02
      1.14016526279432E-02   0.00000000000000E+00   0.00000000000000E+00   8.26118419801218E-10  -1.18622284643849E-34
      8.26118419801218E-10   4.04794906268896E-18
      1.55036711715749E-02
      0.00000000000000E+00   2.00294349283186E-10   0.00000000000000E+00   0.00000000000000E+00  -9.06672627008477E-10
     -1.19205256406749E-34  -9.06672627008477E-10   4.70793894376226E-18   0.00000000000000E+00   0.00000000000000E+00
      0.00000000000000E+00   0.00000000000000E+00   0.00000000000000E+00   0.00000000000000E+00   0.00000000000000E+00
      3.65462033592977E-18   0.00000000000000E+00   0.00000000000000E+00   0.00000000000000E+00   0.00000000000000E+00
     -6.25173142392827E-21   2.46697906828467E-34  -6.25173142392802E-21  -1.24320020279509E-17   1.33331572075544E-02
      1.33331570057690E-02   0.00000000000000E+00   0.00000000000000E+00   9.06672627014728E-10  -1.27492650421718E-34
      9.06672627014728E-10   4.06944274825895E-18
      1.79592271475886E-02
      0.00000000000000E+00   2.16763318169230E-10   0.00000000000000E+00   0.00000000000000E+00  -9.81167335043259E-10
     -1.51718883608819E-34  -9.81167335043259E-10   4.70729626488081E-18   0.00000000000000E+00   0.00000000000000E+00
      0.00000000000000E+00   0.00000000000000E+00   0.00000000000000E+00   0.00000000000000E+00   0.00000000000000E+00
      3.63125365749616E-18   0.00000000000000E+00   0.00000000000000E+00   0.00000000000000E+00   0.00000000000000E+00
      1.48514513144221E-21   2.63239205771396E-34   1.48514513144248E-21  -1.24315055699411E-17   1.54449353469262E-02
      1.54449351285470E-02   0.00000000000000E+00   0.00000000000000E+00   9.81167335041774E-10  -1.11520322162577E-34
      9.81167335041774E-10   4.09295564756414E-18
      2.06439683480302E-02
      0.00000000000000E+00   2.31707780491347E-10   0.00000000000000E+00   0.00000000000000E+00  -1.04876329423874E-09
     -1.53293491831258E-34  -1.04876329423874E-09   4.70659382993784E-18   0.00000000000000E+00   0.00000000000000E+00
      0.00000000000000E+00   0.00000000000000E+00   0.00000000000000E+00   0.00000000000000E+00   0.00000000000000E+00
      3.60571622604098E-18   0.00000000000000E+00   0.00000000000000E+00   0.00000000000000E+00   0.00000000000000E+00
     -2.68101871104541E-20   2.51367226930099E-34  -2.68101871104538E-20  -1.24309884668384E-17   1.77538127793060E-02
      1.77538125458684E-02   0.00000000000000E+00   0.00000000000000E+00   1.04876329426555E-09  -9.80737350988411E-35
      1.04876329426555E-09   4.11867841085957E-18
      2.35792853938464E-02
      0.00000000000000E+00   2.44985694137460E-10   0.00000000000000E+00   0.00000000000000E+00  -1.10882531378573E-09
     -1.21969672475237E-34  -1.10882531378573E-09   4.70582609337714E-18   0.00000000000000E+00   0.00000000000000E+00
      0.00000000000000E+00   0.00000000000000E+00   0.00000000000000E+00   0.00000000000000E+00   0.00000000000000E+00
      3.57780696607003E-18   0.00000000000000E+00   0.00000000000000E+00   0.00000000000000E+00   0.00000000000000E+00
      7.61316774330329E-21   2.22370904767374E-34   7.61316774330351E-21  -1.24304528675725E-17   2.02781854387079E-02
      2.02781851918907E-02   0.00000000000000E+00   0.00000000000000E+00   1.10882531377812E-09  -1.00401232292137E-34
      1.10882531377812E-09   4.14681980812532E-18
      2.67885653639387E-02
      0.00000000000000E+00   2.56514856377373E-10   0.00000000000000E+00   0.00000000000000E+00  -1.16099062815603E-09
     -1.59390516239932E-34  -1.16099062815603E-09   4.70498699497538E-18   0.00000000000000E+00   0.00000000000000E+00
      0.00000000000000E+00   0.00000000000000E+00   0.00000000000000E+00   0.00000000000000E+00   0.00000000000000E+00
      3.54730621671218E-18   0.00000000000000E+00   0.00000000000000E+00   0.00000000000000E+00   0.00000000000000E+00
     -1.77060447441458E-21   2.36563272560639E-34  -1.77060447441434E-21  -1.24299016692673E-17   2.30381662129873E-02
      2.30381659545522E-02   0.00000000000000E+00   0.00000000000000E+00   1.16099062815780E-09  -7.71727563207061E-35
      1.16099062815780E-09   4.17760845757970E-18
      3.02973781312396E-02
      0.00000000000000E+00   2.66287463225748E-10   0.00000000000000E+00   0.00000000000000E+00  -1.20523449118858E-09
     -1.47204778884671E-34  -1.20523449118858E-09   4.70406991162892E-18   0.00000000000000E+00   0.00000000000000E+00
      0.00000000000000E+00   0.00000000000000E+00   0.00000000000000E+00   0.00000000000000E+00   0.00000000000000E+00
      3.51397400194091E-18   0.00000000000000E+00   0.00000000000000E+00   0.00000000000000E+00   0.00000000000000E+00
     -5.68336849853082E-21   2.28181104673355E-34  -5.68336849853059E-21  -1.24293386289273E-17   2.60557451928661E-02
      2.60557449245831E-02   0.00000000000000E+00   0.00000000000000E+00   1.20523449119426E-09  -8.09763257886836E-35
      1.20523449119426E-09   4.21129471535746E-18
      3.41336800901553E-02
      0.00000000000000E+00   2.74381212512940E-10   0.00000000000000E+00   0.00000000000000E+00  -1.24192028617501E-09
     -1.57569858374283E-34  -1.24192028617501E-09   4.70306760461066E-18   0.00000000000000E+00   0.00000000000000E+00
      0.00000000000000E+00   0.00000000000000E+00   0.00000000000000E+00   0.00000000000000E+00   0.00000000000000E+00
      3.47754813986425E-18   0.00000000000000E+00   0.00000000000000E+00   0.00000000000000E+00   0.00000000000000E+00
      3.52408946095359E-20   2.25394803144828E-34   3.52408946095361E-20  -1.24287684881786E-17   2.93549648775336E-02
      2.93549646010946E-02   0.00000000000000E+00   0.00000000000000E+00   1.24192028613977E-09  -6.78249447705454E-35
      1.24192028613977E-09   4.24815274370369E-18
      3.83280368985698E-02
      0.00000000000000E+00   2.80965959529387E-10   0.00000000000000E+00   0.00000000000000E+00  -1.27182836650491E-09
     -1.39155703738928E-34  -1.27182836650491E-09   4.70197216175236E-18   0.00000000000000E+00   0.00000000000000E+00
      0.00000000000000E+00   0.00000000000000E+00   0.00000000000000E+00   0.00000000000000E+00   0.00000000000000E+00
      3.43774216469386E-18   0.00000000000000E+00   0.00000000000000E+00   0.00000000000000E+00   0.00000000000000E+00
      1.31837005745691E-20   1.93977934255123E-34   1.31837005745692E-20  -1.24281970951768E-17   3.29621117327701E-02
      3.29621114496970E-02   0.00000000000000E+00   0.00000000000000E+00   1.27182836649172E-09  -5.48222305161942E-35
      1.27182836649172E-09   4.28848276873060E-18
      4.29138670091030E-02
      0.00000000000000E+00   2.86299938431704E-10   0.00000000000000E+00   0.00000000000000E+00  -1.29613825506221E-09
     -1.18077887275099E-34  -1.29613825506221E-09   4.70077493428277E-18   0.00000000000000E+00   0.00000000000000E+00
      0.00000000000000E+00   0.00000000000000E+00   0.00000000000000E+00   0.00000000000000E+00   0.00000000000000E+00
      3.39424305131530E-18   0.00000000000000E+00   0.00000000000000E+00   0.00000000000000E+00   0.00000000000000E+00
      2.06325066605380E-21   1.69057808339640E-34   2.06325066605397E-21  -1.24276315329939E-17   3.69059256278286E-02
      3.69059253393839E-02   0.00000000000000E+00   0.00000000000000E+00   1.29613825506015E-09  -5.09799210645416E-35
      1.29613825506015E-09   4.33261354739587E-18
      4.79277079299527E-02
      0.00000000000000E+00   2.90712685319667E-10   0.00000000000000E+00   0.00000000000000E+00  -1.31634944016415E-09
     -1.03928911567554E-34  -1.31634944016415E-09   4.69946646778067E-18   0.00000000000000E+00   0.00000000000000E+00
      0.00000000000000E+00   0.00000000000000E+00   0.00000000000000E+00   0.00000000000000E+00   0.00000000000000E+00
      3.34670871541590E-18   0.00000000000000E+00   0.00000000000000E+00   0.00000000000000E+00   0.00000000000000E+00
     -9.06749402811752E-19   1.49465947950356E-34  -9.06749402811752E-19  -1.24270802401090E-17   4.12178288197593E-02
      4.12178285268744E-02   0.00000000000000E+00   0.00000000000000E+00   1.31634944107090E-09  -4.55370363828014E-35
      1.31634944107090E-09   4.38090505691238E-18
      5.34095073367482E-02
      0.00000000000000E+00   2.94574278137760E-10   0.00000000000000E+00   0.00000000000000E+00  -1.33414038369406E-09
     -1.33704627597540E-34  -1.33414038369406E-09   4.69803642701912E-18   0.00000000000000E+00   0.00000000000000E+00
      0.00000000000000E+00   0.00000000000000E+00   0.00000000000000E+00   0.00000000000000E+00   0.00000000000000E+00
      3.29476527933526E-18   0.00000000000000E+00   0.00000000000000E+00   0.00000000000000E+00   0.00000000000000E+00
     -1.39660238610220E-18   1.74632917347330E-34  -1.39660238610220E-18  -1.24265531351787E-17   4.59321763096035E-02
      4.59321760128385E-02   0.00000000000000E+00   0.00000000000000E+00   1.33414038509066E-09  -4.09282897497906E-35
      1.33414038509066E-09   4.43375142882428E-18
      5.94029413548448E-02
      0.00000000000000E+00   2.98253855534899E-10   0.00000000000000E+00   0.00000000000000E+00  -1.35118446132774E-09
     -9.54564464317098E-35  -1.35118446132774E-09   4.69647351435857E-18   0.00000000000000E+00   0.00000000000000E+00
      0.00000000000000E+00   0.00000000000000E+00   0.00000000000000E+00   0.00000000000000E+00   0.00000000000000E+00
      3.23800408122334E-18   0.00000000000000E+00   0.00000000000000E+00   0.00000000000000E+00   0.00000000000000E+00
     -1.73145978505379E-18   1.29192336378115E-34  -1.73145978505379E-18  -1.24260617394876E-17   5.10865295651665E-02
      5.10865292647109E-02   0.00000000000000E+00   0.00000000000000E+00   1.35118446305919E-09  -3.37358899464047E-35
      1.35118446305919E-09   4.49158414390562E-18
      6.59557625479636E-02
      0.00000000000000E+00   3.02065633007152E-10   0.00000000000000E+00   0.00000000000000E+00  -1.36890271400091E-09
     -1.65671762626546E-34  -1.36890271400091E-09   4.69476538185828E-18   0.00000000000000E+00   0.00000000000000E+00
      0.00000000000000E+00   0.00000000000000E+00   0.00000000000000E+00   0.00000000000000E+00   0.00000000000000E+00
      3.17597842378716E-18   0.00000000000000E+00   0.00000000000000E+00   0.00000000000000E+00   0.00000000000000E+00
     -7.32085374695532E-21   1.91793352340464E-34  -7.32085374695513E-21  -1.24256193181802E-17   5.67219557912487E-02
      5.67219554869762E-02   0.00000000000000E+00   0.00000000000000E+00   1.36890271400823E-09  -2.61215897139186E-35
      1.36890271400823E-09   4.55487551253473E-18
      7.30764949111528E-02
      0.00000000000000E+00   3.06189108415438E-10   0.00000000000000E+00   0.00000000000000E+00  -1.38809934318219E-09
     -1.35108983474733E-34  -1.38809934318219E-09   4.69290991633956E-18   0.00000000000000E+00   0.00000000000000E+00
      0.00000000000000E+00   0.00000000000000E+00   0.00000000000000E+00   0.00000000000000E+00   0.00000000000000E+00
      3.10861319918241E-18   0.00000000000000E+00   0.00000000000000E+00   0.00000000000000E+00   0.00000000000000E+00
     -1.19900818151552E-20   1.56384950351508E-34  -1.19900818151550E-20  -1.24252430082319E-17   6.28457856235914E-02
      6.28457853151941E-02   0.00000000000000E+00   0.00000000000000E+00   1.38809934319419E-09  -2.12759668767744E-35
      1.38809934319419E-09   4.62371989271000E-18
      8.08143574124850E-02
      0.00000000000000E+00   3.10721908771154E-10   0.00000000000000E+00   0.00000000000000E+00  -1.40921005364456E-09
     -1.42768913185450E-34  -1.40921005364456E-09   4.69089440443040E-18   0.00000000000000E+00   0.00000000000000E+00
      0.00000000000000E+00   0.00000000000000E+00   0.00000000000000E+00   0.00000000000000E+00   0.00000000000000E+00
      3.03544831651790E-18   0.00000000000000E+00   0.00000000000000E+00   0.00000000000000E+00   0.00000000000000E+00
     -1.32374608458715E-20   1.61731270727121E-34  -1.32374608458713E-20  -1.24249482416436E-17   6.95003473747371E-02
      6.95003470618098E-02   0.00000000000000E+00   0.00000000000000E+00   1.40921005365779E-09  -1.89623575416708E-35
      1.40921005365779E-09   4.69860552069528E-18
      8.92228346639326E-02
      0.00000000000000E+00   3.15720146701018E-10   0.00000000000000E+00   0.00000000000000E+00  -1.43249509303692E-09
     -1.07150209516466E-34  -1.43249509303692E-09   4.68870503393145E-18   0.00000000000000E+00   0.00000000000000E+00
      0.00000000000000E+00   0.00000000000000E+00   0.00000000000000E+00   0.00000000000000E+00   0.00000000000000E+00
      2.95598382951370E-18   0.00000000000000E+00   0.00000000000000E+00   0.00000000000000E+00   0.00000000000000E+00
     -2.17534568069904E-20   1.22046710687632E-34  -2.17534568069903E-20  -1.24247520769630E-17   7.67316378109821E-02
      7.67316374930642E-02   0.00000000000000E+00   0.00000000000000E+00   1.43249509305867E-09  -1.48965011711655E-35
      1.43249509305867E-09   4.78006321351780E-18
      9.83600466105058E-02
      0.00000000000000E+00   3.21219467541965E-10   0.00000000000000E+00   0.00000000000000E+00  -1.45812341028997E-09
     -1.76407137221004E-34  -1.45812341028997E-09   4.68632680201718E-18   0.00000000000000E+00   0.00000000000000E+00
      0.00000000000000E+00   0.00000000000000E+00   0.00000000000000E+00   0.00000000000000E+00   0.00000000000000E+00
      2.86967653226310E-18   0.00000000000000E+00   0.00000000000000E+00   0.00000000000000E+00   0.00000000000000E+00
     -3.16258704381916E-20   1.88647697952623E-34  -3.16258704381914E-20  -1.24246733075140E-17   8.45896400850350E-02
      8.45896397616281E-02   0.00000000000000E+00   0.00000000000000E+00   1.45812341032160E-09  -1.22405607316192E-35
      1.45812341032160E-09   4.86866997323376E-18
      1.08289150259115E-01
      0.00000000000000E+00   3.27235673659976E-10   0.00000000000000E+00   0.00000000000000E+00  -1.48617604905237E-09
     -1.38460172795334E-34  -1.48617604905237E-09   4.68374341297782E-18   0.00000000000000E+00   0.00000000000000E+00
      0.00000000000000E+00   0.00000000000000E+00   0.00000000000000E+00   0.00000000000000E+00   0.00000000000000E+00
      2.77593622624479E-18   0.00000000000000E+00   0.00000000000000E+00   0.00000000000000E+00   0.00000000000000E+00
     -1.85371741449308E-20   1.46609392785361E-34  -1.85371741449307E-20  -1.24247325083355E-17   9.31286692228391E-02
      9.31286688934258E-02   0.00000000000000E+00   0.00000000000000E+00   1.48617604907091E-09  -8.14921999002671E-36
      1.48617604907091E-09   4.96505286911292E-18
      1.18289150259115E-01
      0.00000000000000E+00   3.33324687298684E-10   0.00000000000000E+00   0.00000000000000E+00  -1.51459033752710E-09
     -1.20341841937627E-34  -1.51459033752710E-09   4.68114249704271E-18   0.00000000000000E+00   0.00000000000000E+00
      0.00000000000000E+00   0.00000000000000E+00   0.00000000000000E+00   0.00000000000000E+00   0.00000000000000E+00
      2.68157105486099E-18   0.00000000000000E+00   0.00000000000000E+00   0.00000000000000E+00   0.00000000000000E+00
      9.95187974566020E-21   1.26318310544753E-34   9.95187974566033E-21  -1.24249306931798E-17   1.01728669222839E-01
      1.01728668887348E-01   0.00000000000000E+00   0.00000000000000E+00   1.51459033751715E-09  -5.97646860712652E-36
      1.51459033751715E-09   5.06221714127604E-18
      1.28289150259115E-01
      0.00000000000000E+00   3.39458114347676E-10   0.00000000000000E+00   0.00000000000000E+00  -1.54323552627727E-09
     -1.41604418215031E-34  -1.54323552627727E-09   4.67854242012504E-18   0.00000000000000E+00   0.00000000000000E+00
      0.00000000000000E+00   0.00000000000000E+00   0.00000000000000E+00   0.00000000000000E+00   0.00000000000000E+00
      2.58724597868606E-18   0.00000000000000E+00   0.00000000000000E+00   0.00000000000000E+00   0.00000000000000E+00
     -1.78248742146231E-20   1.45660215567236E-34  -1.78248742146229E-20  -1.24252550431400E-17   1.10328669222839E-01
      1.10328668881231E-01   0.00000000000000E+00   0.00000000000000E+00   1.54323552629510E-09  -4.05579735220522E-36
      1.54323552629510E-09   5.15946664432893E-18
      1.38289150259115E-01
      0.00000000000000E+00   3.45651994955012E-10   0.00000000000000E+00   0.00000000000000E+00  -1.57218487316655E-09
     -1.29373419724675E-34  -1.57218487316655E-09   4.67594310880543E-18   0.00000000000000E+00   0.00000000000000E+00
      0.00000000000000E+00   0.00000000000000E+00   0.00000000000000E+00   0.00000000000000E+00   0.00000000000000E+00
      2.49295703697489E-18   0.00000000000000E+00   0.00000000000000E+00   0.00000000000000E+00   0.00000000000000E+00
     -9.20842846981383E-21   1.32717348707614E-34  -9.20842846981369E-21  -1.24256939946947E-17   1.18928669222839E-01
      1.18928668875060E-01   0.00000000000000E+00   0.00000000000000E+00   1.57218487317576E-09  -3.34392898293919E-36
      1.57218487317576E-09   5.25679384891438E-18
      1.48289150259115E-01
      0.00000000000000E+00   3.51915535569535E-10   0.00000000000000E+00   0.00000000000000E+00  -1.60147972399405E-09
     -1.26260339992286E-34  -1.60147972399405E-09   4.67334450109574E-18   0.00000000000000E+00   0.00000000000000E+00
      0.00000000000000E+00   0.00000000000000E+00   0.00000000000000E+00   0.00000000000000E+00   0.00000000000000E+00
      2.39870080999521E-18   0.00000000000000E+00   0.00000000000000E+00   0.00000000000000E+00   0.00000000000000E+00
      6.04677764519725E-21   1.28799216618197E-34   6.04677764519738E-21  -1.24262372323608E-17   1.27528669222839E-01
      1.27528668868821E-01   0.00000000000000E+00   0.00000000000000E+00   1.60147972398800E-09  -2.53887662591130E-36
      1.60147972398800E-09   5.35419192126982E-18
      1.58289150259115E-01
      0.00000000000000E+00   3.58252162056290E-10   0.00000000000000E+00   0.00000000000000E+00  -1.63113495856684E-09
     -1.25447113765538E-34  -1.63113495856684E-09   4.67074654324349E-18   0.00000000000000E+00   0.00000000000000E+00
      0.00000000000000E+00   0.00000000000000E+00   0.00000000000000E+00   0.00000000000000E+00   0.00000000000000E+00
      2.30447433859546E-18   0.00000000000000E+00   0.00000000000000E+00   0.00000000000000E+00   0.00000000000000E+00
     -4.55225067577119E-21   1.27243819883504E-34  -4.55225067577106E-21  -1.24268755321021E-17   1.36128669222839E-01
      1.36128668862505E-01   0.00000000000000E+00   0.00000000000000E+00   1.63113495857140E-09  -1.79670611796559E-36
      1.63113495857140E-09   5.45165465026320E-18
      1.68289150259115E-01
      0.00000000000000E+00   3.64661929634812E-10   0.00000000000000E+00   0.00000000000000E+00  -1.66115020431713E-09
     -1.44153818120497E-34  -1.66115020431713E-09   4.66814918694966E-18   0.00000000000000E+00   0.00000000000000E+00
      0.00000000000000E+00   0.00000000000000E+00   0.00000000000000E+00   0.00000000000000E+00   0.00000000000000E+00
      2.21027503014278E-18   0.00000000000000E+00   0.00000000000000E+00   0.00000000000000E+00   0.00000000000000E+00
      1.47812509481946E-20   1.45400263561231E-34   1.47812509481948E-20  -1.24276005978078E-17   1.44728669222839E-01
      1.44728668856113E-01   0.00000000000000E+00   0.00000000000000E+00   1.66115020430235E-09  -1.24644544073368E-36
      1.66115020430235E-09   5.54917638071536E-18
      1.78289150259115E-01
      0.00000000000000E+00   3.71143395835608E-10   0.00000000000000E+00   0.00000000000000E+00  -1.69151846196290E-09
     -1.37658282222867E-34  -1.69151846196290E-09   4.66555238838150E-18   0.00000000000000E+00   0.00000000000000E+00
      0.00000000000000E+00   0.00000000000000E+00   0.00000000000000E+00   0.00000000000000E+00   0.00000000000000E+00
      2.11610058475247E-18   0.00000000000000E+00   0.00000000000000E+00   0.00000000000000E+00   0.00000000000000E+00
     -1.91663520265796E-20   1.38727675510706E-34  -1.91663520265794E-20  -1.24284049283880E-17   1.53328669222839E-01
      1.53328668849648E-01   0.00000000000000E+00   0.00000000000000E+00   1.69151846198207E-09  -1.06939328783819E-36
      1.69151846198207E-09   5.64675195525403E-18
      1.88289150259115E-01
      0.00000000000000E+00   3.77694839837651E-10   0.00000000000000E+00   0.00000000000000E+00  -1.72223191703672E-09