DF-ISE text

Info {
  version   = 1.0
  type      = xyplot
  datasets  = [
    "time"
    "source OuterVoltage" "source InnerVoltage" "source QuasiFermiPotential" "source DisplacementCurrent" "source eCurrent"
    "source hCurrent" "source TotalCurrent" "source Charge" "gate OuterVoltage" "gate InnerVoltage"
    "gate QuasiFermiPotential" "gate DisplacementCurrent" "gate eCurrent" "gate hCurrent" "gate TotalCurrent"
    "gate Charge" "substrate OuterVoltage" "substrate InnerVoltage" "substrate QuasiFermiPotential" "substrate DisplacementCurrent"
    "substrate eCurrent" "substrate hCurrent" "substrate TotalCurrent" "substrate Charge" "drain OuterVoltage"
    "drain InnerVoltage" "drain QuasiFermiPotential" "drain DisplacementCurrent" "drain eCurrent" "drain hCurrent"
    "drain TotalCurrent" "drain Charge" ]
  functions = [
    Time
    OuterVoltage InnerVoltage QuasiFermiPotential DisplacementCurrent eCurrent
    hCurrent TotalCurrent Charge OuterVoltage InnerVoltage
    QuasiFermiPotential DisplacementCurrent eCurrent hCurrent TotalCurrent
    Charge OuterVoltage InnerVoltage QuasiFermiPotential DisplacementCurrent
    eCurrent hCurrent TotalCurrent Charge OuterVoltage
    InnerVoltage QuasiFermiPotential DisplacementCurrent eCurrent hCurrent
    TotalCurrent Charge ]
}

Data {
      0.00000000000000E+00
      0.00000000000000E+00   0.00000000000000E+00   0.00000000000000E+00   0.00000000000000E+00  -3.17871066256791E-20
     -1.52078404104250E-34  -3.17871066256792E-20   4.58199585954849E-18   0.00000000000000E+00   0.00000000000000E+00
      0.00000000000000E+00   0.00000000000000E+00   0.00000000000000E+00   0.00000000000000E+00   0.00000000000000E+00
      3.47459661972214E-18   0.00000000000000E+00   0.00000000000000E+00   0.00000000000000E+00   0.00000000000000E+00
      3.65281861238212E-20   3.00333316542996E-34   3.65281861238215E-20  -1.18207238548474E-17   0.00000000000000E+00
      0.00000000000000E+00   0.00000000000000E+00   0.00000000000000E+00  -4.74107949814210E-21  -1.48254912438745E-34
     -4.74107949814225E-21   3.76413137557682E-18
      0.00000000000000E+00
      0.00000000000000E+00   0.00000000000000E+00   0.00000000000000E+00   0.00000000000000E+00  -3.85853260575407E-19
     -1.20810908163346E-34  -3.85853260575407E-19   4.58051930794597E-18   0.00000000000000E+00   0.00000000000000E+00
      0.00000000000000E+00   0.00000000000000E+00   0.00000000000000E+00   0.00000000000000E+00   0.00000000000000E+00
      3.46828234819819E-18   0.00000000000000E+00   0.00000000000000E+00   0.00000000000000E+00   0.00000000000000E+00
      2.73545732939636E-19   2.90235399255595E-34   2.73545732939636E-19  -1.18117615859608E-17   0.00000000000000E+00
      0.00000000000000E+00   0.00000000000000E+00   0.00000000000000E+00   1.12307527635771E-19  -1.69424491092250E-34
      1.12307527635771E-19   3.76295992981662E-18
      1.00000000000000E-03
      0.00000000000000E+00   2.53806718246660E-12   0.00000000000000E+00   0.00000000000000E+00  -1.05085804609653E-11
     -1.87548983826008E-34  -1.05085804609653E-11   4.58050934868252E-18   0.00000000000000E+00   0.00000000000000E+00
      0.00000000000000E+00   0.00000000000000E+00   0.00000000000000E+00   0.00000000000000E+00   0.00000000000000E+00
      3.46766764243597E-18   0.00000000000000E+00   0.00000000000000E+00   0.00000000000000E+00   0.00000000000000E+00
     -3.83887381431854E-19   3.35699463358238E-34  -3.83887381431853E-19  -1.18117270226664E-17   5.00000000000000E-05
      4.99999974531627E-05   0.00000000000000E+00   0.00000000000000E+00   1.05085808448526E-11  -1.48150479532231E-34
      1.05085808448526E-11   3.76355003154795E-18
      2.09333333333333E-03
      0.00000000000000E+00   5.30477193338673E-12   0.00000000000000E+00   0.00000000000000E+00  -2.19637755496500E-11
     -1.42984628138791E-34  -2.19637755496500E-11   4.58049846009245E-18   0.00000000000000E+00   0.00000000000000E+00
      0.00000000000000E+00   0.00000000000000E+00   0.00000000000000E+00   0.00000000000000E+00   0.00000000000000E+00
      3.46699557740072E-18   0.00000000000000E+00   0.00000000000000E+00   0.00000000000000E+00   0.00000000000000E+00
     -8.87415019770761E-20   3.03438928950714E-34  -8.87415019770757E-20  -1.18116892632638E-17   1.04666666666667E-04
      1.04666661343554E-04   0.00000000000000E+00   0.00000000000000E+00   2.19637756383914E-11  -1.60454300811923E-34
      2.19637756383914E-11   3.76419522577066E-18
      3.29600000000000E-03
      0.00000000000000E+00   8.33784803273509E-12   0.00000000000000E+00   0.00000000000000E+00  -3.45218321758948E-11
     -1.57265486511034E-34  -3.45218321758948E-11   4.58048648289153E-18   0.00000000000000E+00   0.00000000000000E+00
      0.00000000000000E+00   0.00000000000000E+00   0.00000000000000E+00   0.00000000000000E+00   0.00000000000000E+00
      3.46625632185028E-18   0.00000000000000E+00   0.00000000000000E+00   0.00000000000000E+00   0.00000000000000E+00
     -3.54474006422052E-20   3.03578833004757E-34  -3.54474006422049E-20  -1.18116477638449E-17   1.64800000000000E-04
      1.64799991633331E-04   0.00000000000000E+00   0.00000000000000E+00   3.45218322113422E-11  -1.46313346493724E-34
      3.45218322113422E-11   3.76490495910305E-18
      4.61893333333333E-03
      0.00000000000000E+00   1.16615641016609E-11   0.00000000000000E+00   0.00000000000000E+00  -4.82831157807743E-11
     -1.19194163728767E-34  -4.82831157807743E-11   4.58047330827158E-18   0.00000000000000E+00   0.00000000000000E+00
      0.00000000000000E+00   0.00000000000000E+00   0.00000000000000E+00   0.00000000000000E+00   0.00000000000000E+00
      3.46544316006986E-18   0.00000000000000E+00   0.00000000000000E+00   0.00000000000000E+00   0.00000000000000E+00
      1.74368568171302E-19   2.48615639409291E-34   1.74368568171302E-19  -1.18116021579143E-17   2.30946666666667E-04
      2.30946654964806E-04   0.00000000000000E+00   0.00000000000000E+00   4.82831156064057E-11  -1.29421475680524E-34
      4.82831156064057E-11   3.76568568957283E-18
      6.07416000000000E-03
      0.00000000000000E+00   1.53021129986016E-11   0.00000000000000E+00   0.00000000000000E+00  -6.33560946912039E-11
     -1.69570017969929E-34  -6.33560946912039E-11   4.58045881655444E-18   0.00000000000000E+00   0.00000000000000E+00
      0.00000000000000E+00   0.00000000000000E+00   0.00000000000000E+00   0.00000000000000E+00   0.00000000000000E+00
      3.46454870546685E-18   0.00000000000000E+00   0.00000000000000E+00   0.00000000000000E+00   0.00000000000000E+00
     -4.56992246376892E-18   3.28213448381606E-34  -4.56992246376892E-18  -1.18115520438912E-17   3.03708000000000E-04
      3.03707984645026E-04   0.00000000000000E+00   0.00000000000000E+00   6.33560992611264E-11  -1.58643430411677E-34
      6.33560992611264E-11   3.76654452186990E-18
      7.67490933333333E-03
      0.00000000000000E+00   1.92877315776170E-11   0.00000000000000E+00   0.00000000000000E+00  -7.98576753950828E-11
     -1.35350797272331E-34  -7.98576753950828E-11   4.58044287610739E-18   0.00000000000000E+00   0.00000000000000E+00
      0.00000000000000E+00   0.00000000000000E+00   0.00000000000000E+00   0.00000000000000E+00   0.00000000000000E+00
      3.46356483362659E-18   0.00000000000000E+00   0.00000000000000E+00   0.00000000000000E+00   0.00000000000000E+00
     -1.21214816012199E-19   2.84773527501772E-34  -1.21214816012199E-19  -1.18114969819253E-17   3.83745466666667E-04
      3.83745447312330E-04   0.00000000000000E+00   0.00000000000000E+00   7.98576755162976E-11  -1.49422730229441E-34
      7.98576755162976E-11   3.76748927219126E-18
      9.43573360000000E-03
      0.00000000000000E+00   2.36487844291788E-11   0.00000000000000E+00   0.00000000000000E+00  -9.79135218094403E-11
     -1.47702614355702E-34  -9.79135218094403E-11   4.58042534215051E-18   0.00000000000000E+00   0.00000000000000E+00
      0.00000000000000E+00   0.00000000000000E+00   0.00000000000000E+00   0.00000000000000E+00   0.00000000000000E+00
      3.46248260870314E-18   0.00000000000000E+00   0.00000000000000E+00   0.00000000000000E+00   0.00000000000000E+00
      6.24857815277453E-20   3.08415668005833E-34   6.24857815277456E-20  -1.18114364904610E-17   4.71786680000000E-04
      4.71786656269566E-04   0.00000000000000E+00   0.00000000000000E+00   9.79135217469545E-11  -1.60713053650130E-34
      9.79135217469545E-11   3.76852853960734E-18
      1.13726402933333E-02
      0.00000000000000E+00   2.84178260104341E-11   0.00000000000000E+00   0.00000000000000E+00  -1.17658313000083E-10
     -1.41826394283885E-34  -1.17658313000083E-10   4.58040605544519E-18   0.00000000000000E+00   0.00000000000000E+00
      0.00000000000000E+00   0.00000000000000E+00   0.00000000000000E+00   0.00000000000000E+00   0.00000000000000E+00
      3.46129220248401E-18   0.00000000000000E+00   0.00000000000000E+00   0.00000000000000E+00   0.00000000000000E+00
      2.34623192480191E-19   3.13078685348632E-34   2.34623192480191E-19  -1.18113700425387E-17   5.68632014666667E-04
      5.68631986150755E-04   0.00000000000000E+00   0.00000000000000E+00   1.17658312765460E-10  -1.71252291064747E-34
      1.17658312765460E-10   3.76967178460951E-18
      1.35032376560000E-02
      0.00000000000000E+00   3.36296159526614E-11   0.00000000000000E+00   0.00000000000000E+00  -1.39235920136356E-10
     -1.23795842349258E-34  -1.39235920136356E-10   4.58038484085230E-18   0.00000000000000E+00   0.00000000000000E+00
      0.00000000000000E+00   0.00000000000000E+00   0.00000000000000E+00   0.00000000000000E+00   0.00000000000000E+00
      3.45998280540429E-18   0.00000000000000E+00   0.00000000000000E+00   0.00000000000000E+00   0.00000000000000E+00
      2.11456374751732E-19   2.78006131210297E-34   2.11456374751732E-19  -1.18112970618227E-17   6.75161882800000E-04
      6.75161849054350E-04   0.00000000000000E+00   0.00000000000000E+00   1.39235919924900E-10  -1.54210288861040E-34
      1.39235919924900E-10   3.77092941556611E-18
      1.58468947549333E-02
      0.00000000000000E+00   3.93211757889028E-11   0.00000000000000E+00   0.00000000000000E+00  -1.62799464117656E-10
     -1.36554477891253E-34  -1.62799464117656E-10   4.58036150574696E-18   0.00000000000000E+00   0.00000000000000E+00
      0.00000000000000E+00   0.00000000000000E+00   0.00000000000000E+00   0.00000000000000E+00   0.00000000000000E+00
      3.45854252871289E-18   0.00000000000000E+00   0.00000000000000E+00   0.00000000000000E+00   0.00000000000000E+00
      5.98287656231898E-19   3.06159068834863E-34   5.98287656231899E-19  -1.18112169183484E-17   7.92344737746667E-04
      7.92344698289883E-04   0.00000000000000E+00   0.00000000000000E+00   1.62799463519369E-10  -1.69604590943611E-34
      1.62799463519369E-10   3.77231288388859E-18
      1.84249175637600E-02
      0.00000000000000E+00   4.55317025118582E-11   0.00000000000000E+00   0.00000000000000E+00  -1.88511215281902E-10
     -1.44758018211978E-34  -1.88511215281902E-10   4.58033583827569E-18   0.00000000000000E+00   0.00000000000000E+00
      0.00000000000000E+00   0.00000000000000E+00   0.00000000000000E+00   0.00000000000000E+00   0.00000000000000E+00
      3.45695829691681E-18   0.00000000000000E+00   0.00000000000000E+00   0.00000000000000E+00   0.00000000000000E+00
      5.64123563505755E-19   3.10784821060327E-34   5.64123563505756E-19  -1.18111289239847E-17   9.21245878188001E-04
      9.21245832499336E-04   0.00000000000000E+00   0.00000000000000E+00   1.88511214717779E-10  -1.66026802848349E-34
      1.88511214717779E-10   3.77383478879220E-18
      2.12607426534693E-02
      0.00000000000000E+00   5.23025685738850E-11   0.00000000000000E+00   0.00000000000000E+00  -2.16542301462043E-10
     -1.57469887994097E-34  -2.16542301462043E-10   4.58030760544061E-18   0.00000000000000E+00   0.00000000000000E+00
      0.00000000000000E+00   0.00000000000000E+00   0.00000000000000E+00   0.00000000000000E+00   0.00000000000000E+00
      3.45521572954219E-18   0.00000000000000E+00   0.00000000000000E+00   0.00000000000000E+00   0.00000000000000E+00
      7.16526773147566E-19   2.97703952998252E-34   7.16526773147566E-19  -1.18110323276085E-17   1.06303713267347E-03
      1.06303708019068E-03   0.00000000000000E+00   0.00000000000000E+00   2.16542300745516E-10  -1.40234065004155E-34
      2.16542300745516E-10   3.77550899262573E-18
      2.43801502521496E-02
      0.00000000000000E+00   5.96771625093666E-11   0.00000000000000E+00   0.00000000000000E+00  -2.47072166192457E-10
     -1.35338189550725E-34  -2.47072166192457E-10   4.58027655099319E-18   0.00000000000000E+00   0.00000000000000E+00
      0.00000000000000E+00   0.00000000000000E+00   0.00000000000000E+00   0.00000000000000E+00   0.00000000000000E+00
      3.45329901115830E-18   0.00000000000000E+00   0.00000000000000E+00   0.00000000000000E+00   0.00000000000000E+00
      1.10604722473701E-18   2.77649072652679E-34   1.10604722473701E-18  -1.18109263099981E-17   1.21900751260748E-03
      1.21900745272480E-03   0.00000000000000E+00   0.00000000000000E+00   2.47072165086409E-10  -1.42310883101954E-34
      2.47072165086409E-10   3.77735074784668E-18
      2.78114986106979E-02
      0.00000000000000E+00   6.77006656259387E-11   0.00000000000000E+00   0.00000000000000E+00  -2.80287709759572E-10
     -1.57829548244478E-34  -2.80287709759572E-10   4.58024239311933E-18   0.00000000000000E+00   0.00000000000000E+00
      0.00000000000000E+00   0.00000000000000E+00   0.00000000000000E+00   0.00000000000000E+00   0.00000000000000E+00
      3.45119074851446E-18   0.00000000000000E+00   0.00000000000000E+00   0.00000000000000E+00   0.00000000000000E+00
      1.54913408555625E-18   2.85732341654166E-34   1.54913408555625E-18  -1.18108099784644E-17   1.39057493053490E-03
      1.39057486260120E-03   0.00000000000000E+00   0.00000000000000E+00   2.80287708210438E-10  -1.27902793409689E-34
      2.80287708210438E-10   3.77937683683063E-18
      3.15859818051010E-02
      0.00000000000000E+00   7.64198169900155E-11   0.00000000000000E+00   0.00000000000000E+00  -3.16382082354013E-10
     -1.30312125129328E-34  -3.16382082354013E-10   4.58020482189461E-18   0.00000000000000E+00   0.00000000000000E+00
      0.00000000000000E+00   0.00000000000000E+00   0.00000000000000E+00   0.00000000000000E+00   0.00000000000000E+00
      3.44887181350331E-18   0.00000000000000E+00   0.00000000000000E+00   0.00000000000000E+00   0.00000000000000E+00
      2.84454687655249E-18   2.96494226580504E-34   2.84454687655249E-18  -1.18106823612172E-17   1.57929909025505E-03
      1.57929901357235E-03   0.00000000000000E+00   0.00000000000000E+00   3.16382079509466E-10  -1.66182101451176E-34
      3.16382079509466E-10   3.78160572581928E-18
      3.57379133189445E-02
      0.00000000000000E+00   8.58824289908221E-11   0.00000000000000E+00   0.00000000000000E+00  -3.55553019438770E-10
     -1.60966333458937E-34  -3.55553019438770E-10   4.58016349648759E-18   0.00000000000000E+00   0.00000000000000E+00
      0.00000000000000E+00   0.00000000000000E+00   0.00000000000000E+00   0.00000000000000E+00   0.00000000000000E+00
      3.44632117058006E-18   0.00000000000000E+00   0.00000000000000E+00   0.00000000000000E+00   0.00000000000000E+00
      1.82558438356099E-17   3.10959335979464E-34   1.82558438356099E-17  -1.18105424015295E-17   1.78689566594722E-03
      1.78689557976955E-03   0.00000000000000E+00   0.00000000000000E+00   3.55553001182927E-10  -1.49993002520527E-34
      3.55553001182927E-10   3.78405773446183E-18
      4.03050379841723E-02
      0.00000000000000E+00   9.61369083070601E-11   0.00000000000000E+00   0.00000000000000E+00  -3.98000558401881E-10
     -1.64267286805028E-34  -3.98000558401881E-10   4.58011804208626E-18   0.00000000000000E+00   0.00000000000000E+00
      0.00000000000000E+00   0.00000000000000E+00   0.00000000000000E+00   0.00000000000000E+00   0.00000000000000E+00
      3.44351568709966E-18   0.00000000000000E+00   0.00000000000000E+00   0.00000000000000E+00   0.00000000000000E+00
      5.97082479933943E-18   3.13953468072866E-34   5.97082479933943E-18  -1.18103889517279E-17   2.01525189920861E-03
      2.01525180274143E-03   0.00000000000000E+00   0.00000000000000E+00   3.98000552431056E-10  -1.49686181267837E-34
      3.98000552431056E-10   3.78675522254197E-18
      4.53288751159228E-02
      0.00000000000000E+00   1.07231585080150E-10   0.00000000000000E+00   0.00000000000000E+00  -4.43924344861216E-10
     -1.56641588830777E-34  -4.43924344861216E-10   4.58006804652034E-18   0.00000000000000E+00   0.00000000000000E+00
      0.00000000000000E+00   0.00000000000000E+00   0.00000000000000E+00   0.00000000000000E+00   0.00000000000000E+00
      3.44042992489485E-18   0.00000000000000E+00   0.00000000000000E+00   0.00000000000000E+00   0.00000000000000E+00
      8.62040254189965E-18   2.97799266620073E-34   8.62040254189965E-18  -1.18102207670706E-17   2.26644375579614E-03
      2.26644364819645E-03   0.00000000000000E+00   0.00000000000000E+00   4.43924336240813E-10  -1.41157677789295E-34
      4.43924336240813E-10   3.78972279565538E-18
      5.08550959608485E-02
      0.00000000000000E+00   1.19213811575192E-10   0.00000000000000E+00   0.00000000000000E+00  -4.93519906455201E-10
     -1.68255541536985E-34  -4.93519906455201E-10   4.58001305654995E-18   0.00000000000000E+00   0.00000000000000E+00
      0.00000000000000E+00   0.00000000000000E+00   0.00000000000000E+00   0.00000000000000E+00   0.00000000000000E+00
      3.43703591126600E-18   0.00000000000000E+00   0.00000000000000E+00   0.00000000000000E+00   0.00000000000000E+00
      1.26949266946413E-17   3.20985036604183E-34   1.26949266946413E-17  -1.18100364996035E-17   2.54275479804242E-03
      2.54275467841971E-03   0.00000000000000E+00   0.00000000000000E+00   4.93519893760275E-10  -1.52729495067198E-34
      4.93519893760275E-10   3.79298753178755E-18
      5.69339388902666E-02
      0.00000000000000E+00   1.32128928477454E-10   0.00000000000000E+00   0.00000000000000E+00  -5.46974363740345E-10
     -1.36993970314783E-34  -5.46974363740345E-10   4.57995257378693E-18   0.00000000000000E+00   0.00000000000000E+00
      0.00000000000000E+00   0.00000000000000E+00   0.00000000000000E+00   0.00000000000000E+00   0.00000000000000E+00
      3.43330288735461E-18   0.00000000000000E+00   0.00000000000000E+00   0.00000000000000E+00   0.00000000000000E+00
      1.85495341074499E-17   2.88077320955151E-34   1.85495341074499E-17  -1.18098346920896E-17   2.84669694451333E-03
      2.84669681193161E-03   0.00000000000000E+00   0.00000000000000E+00   5.46974345190811E-10  -1.51083350640368E-34
      5.46974345190811E-10   3.79657923094809E-18
      6.36206661126266E-02
      0.00000000000000E+00   1.46018970061666E-10   0.00000000000000E+00   0.00000000000000E+00  -6.04461019550445E-10
     -1.40535285457374E-34  -6.04461019550445E-10   4.57988605021489E-18   0.00000000000000E+00   0.00000000000000E+00
      0.00000000000000E+00   0.00000000000000E+00   0.00000000000000E+00   0.00000000000000E+00   0.00000000000000E+00
      3.42919703172857E-18   0.00000000000000E+00   0.00000000000000E+00   0.00000000000000E+00   0.00000000000000E+00
      2.07512685984809E-17   2.86336665677146E-34   2.07512685984809E-17  -1.18096137721900E-17   3.18103330563133E-03
      3.18103315911244E-03   0.00000000000000E+00   0.00000000000000E+00   6.04460998799177E-10  -1.45801380219771E-34
      6.04460998799177E-10   3.80053069024652E-18
      7.09760660572226E-02
      0.00000000000000E+00   1.60921119939816E-10   0.00000000000000E+00   0.00000000000000E+00  -6.66133015992410E-10
     -1.12775762090788E-34  -6.66133015992410E-10   4.57981288326623E-18   0.00000000000000E+00   0.00000000000000E+00
      0.00000000000000E+00   0.00000000000000E+00   0.00000000000000E+00   0.00000000000000E+00   0.00000000000000E+00
      3.42468115670293E-18   0.00000000000000E+00   0.00000000000000E+00   0.00000000000000E+00   0.00000000000000E+00
      3.86734275056945E-17   2.57896935479482E-34   3.86734275056945E-17  -1.18093720469977E-17   3.54880330286113E-03
      3.54880314138962E-03   0.00000000000000E+00   0.00000000000000E+00   6.66132977318982E-10  -1.45121173388694E-34
      6.66132977318982E-10   3.80487800702848E-18
      7.90670059962782E-02
      0.00000000000000E+00   1.76865920088782E-10   0.00000000000000E+00   0.00000000000000E+00  -7.32115866692914E-10
     -1.55106014443846E-34  -7.32115866692914E-10   4.57973241041438E-18   0.00000000000000E+00   0.00000000000000E+00
      0.00000000000000E+00   0.00000000000000E+00   0.00000000000000E+00   0.00000000000000E+00   0.00000000000000E+00
      3.41971437477725E-18   0.00000000000000E+00   0.00000000000000E+00   0.00000000000000E+00   0.00000000000000E+00
      5.63409294804873E-17   2.89015481442782E-34   5.63409294804873E-17  -1.18091076981914E-17   3.95335029981391E-03
      3.95335012234372E-03   0.00000000000000E+00   0.00000000000000E+00   7.32115810351984E-10  -1.33909466998936E-34
      7.32115810351984E-10   3.80966091299977E-18
      8.79670399292394E-02
      0.00000000000000E+00   1.93875172828386E-10   0.00000000000000E+00   0.00000000000000E+00  -8.02498739772335E-10
     -1.40243199986554E-34  -8.02498739772335E-10   4.57964390323428E-18   0.00000000000000E+00   0.00000000000000E+00
      0.00000000000000E+00   0.00000000000000E+00   0.00000000000000E+00   0.00000000000000E+00   0.00000000000000E+00
      3.41425173231982E-18   0.00000000000000E+00   0.00000000000000E+00   0.00000000000000E+00   0.00000000000000E+00
      8.13033912896616E-17   2.74526215665986E-34   8.13033912896616E-17  -1.18088187781266E-17   4.39835199646197E-03
      4.39835180192518E-03   0.00000000000000E+00   0.00000000000000E+00   8.02498658468943E-10  -1.34283015679431E-34
      8.02498658468943E-10   3.81492314257258E-18
      9.77570772554967E-02
      0.00000000000000E+00   2.11959521342882E-10   0.00000000000000E+00   0.00000000000000E+00  -8.77324604710110E-10
     -1.37632663377460E-34  -8.77324604710110E-10   4.57954656087809E-18   0.00000000000000E+00   0.00000000000000E+00
      0.00000000000000E+00   0.00000000000000E+00   0.00000000000000E+00   0.00000000000000E+00   0.00000000000000E+00
      3.40824380723973E-18   0.00000000000000E+00   0.00000000000000E+00   0.00000000000000E+00   0.00000000000000E+00
      1.18160337556482E-16   2.65549975900811E-34   1.18160337556482E-16  -1.18085032070882E-17   4.88785386277484E-03
      4.88785365009288E-03   0.00000000000000E+00   0.00000000000000E+00   8.77324486549772E-10  -1.27917312523351E-34
      8.77324486549772E-10   3.82071283897036E-18
      1.07757077255497E-01
      0.00000000000000E+00   2.29772962099282E-10   0.00000000000000E+00   0.00000000000000E+00  -9.51023539316448E-10
     -1.31278852087300E-34  -9.51023539316448E-10   4.57944714751283E-18   0.00000000000000E+00   0.00000000000000E+00
      0.00000000000000E+00   0.00000000000000E+00   0.00000000000000E+00   0.00000000000000E+00   0.00000000000000E+00
      3.40210808558946E-18   0.00000000000000E+00   0.00000000000000E+00   0.00000000000000E+00   0.00000000000000E+00
      8.60214521643531E-17   2.63627227847997E-34   8.60214521643531E-17  -1.18081832759046E-17   5.38785386277483E-03
      5.38785363221969E-03   0.00000000000000E+00   0.00000000000000E+00   9.51023453294996E-10  -1.32348375760697E-34
      9.51023453294996E-10   3.82662804280230E-18
      1.17757077255497E-01
      0.00000000000000E+00   2.46939613307057E-10   0.00000000000000E+00   0.00000000000000E+00  -1.02204079285888E-09
     -1.53317395782523E-34  -1.02204079285888E-09   4.57934775080585E-18   0.00000000000000E+00   0.00000000000000E+00
      0.00000000000000E+00   0.00000000000000E+00   0.00000000000000E+00   0.00000000000000E+00   0.00000000000000E+00
      3.39597341864624E-18   0.00000000000000E+00   0.00000000000000E+00   0.00000000000000E+00   0.00000000000000E+00
      1.37222195150691E-16   3.05862498044580E-34   1.37222195150691E-16  -1.18078657613391E-17   5.88785386277483E-03
      5.88785361499560E-03   0.00000000000000E+00   0.00000000000000E+00   1.02204065563668E-09  -1.52545102262057E-34
      1.02204065563668E-09   3.83254459188702E-18
      1.27757077255497E-01
      0.00000000000000E+00   2.63478473320228E-10   0.00000000000000E+00   0.00000000000000E+00  -1.09045540815832E-09
     -1.33527082256928E-34  -1.09045540815832E-09   4.57924837058686E-18   0.00000000000000E+00   0.00000000000000E+00
      0.00000000000000E+00   0.00000000000000E+00   0.00000000000000E+00   0.00000000000000E+00   0.00000000000000E+00
      3.38983979720063E-18   0.00000000000000E+00   0.00000000000000E+00   0.00000000000000E+00   0.00000000000000E+00
      1.35071043977276E-16   2.60034204606047E-34   1.35071043977276E-16  -1.18075506467335E-17   6.38785386277483E-03
      6.38785359840151E-03   0.00000000000000E+00   0.00000000000000E+00   1.09045527308728E-09  -1.26507122349119E-34
      1.09045527308728E-09   3.83846247894600E-18
      1.37757077255497E-01
      0.00000000000000E+00   2.79408395522205E-10   0.00000000000000E+00   0.00000000000000E+00  -1.15634577425925E-09
     -1.44776897982276E-34  -1.15634577425925E-09   4.57914900668288E-18   0.00000000000000E+00   0.00000000000000E+00
      0.00000000000000E+00   0.00000000000000E+00   0.00000000000000E+00   0.00000000000000E+00   0.00000000000000E+00
      3.38370721205427E-18   0.00000000000000E+00   0.00000000000000E+00   0.00000000000000E+00   0.00000000000000E+00
      1.32860089388522E-16   2.78233034887186E-34   1.32860089388522E-16  -1.18072379154603E-17   6.88785386277483E-03
      6.88785358241852E-03   0.00000000000000E+00   0.00000000000000E+00   1.15634564139917E-09  -1.33456136904910E-34
      1.15634564139917E-09   3.84438169672322E-18
      1.47757077255497E-01
      0.00000000000000E+00   2.94747856913060E-10   0.00000000000000E+00   0.00000000000000E+00  -1.21978891033533E-09
     -1.51531871370875E-34  -1.21978891033533E-09   4.57904965892220E-18   0.00000000000000E+00   0.00000000000000E+00
      0.00000000000000E+00   0.00000000000000E+00   0.00000000000000E+00   0.00000000000000E+00   0.00000000000000E+00
      3.37757565420767E-18   0.00000000000000E+00   0.00000000000000E+00   0.00000000000000E+00   0.00000000000000E+00
     -3.73458384636373E-20   2.74151596222154E-34  -3.73458384636370E-20  -1.18069275511726E-17   7.38785386277483E-03
      7.38785356702803E-03   0.00000000000000E+00   0.00000000000000E+00   1.21978891037267E-09  -1.22619724851279E-34
      1.21978891037267E-09   3.85030223804268E-18
      1.57757077255497E-01
      0.00000000000000E+00   3.09515249851640E-10   0.00000000000000E+00   0.00000000000000E+00  -1.28086132629246E-09
     -1.48120978804603E-34  -1.28086132629246E-09   4.57895032713195E-18   0.00000000000000E+00   0.00000000000000E+00
      0.00000000000000E+00   0.00000000000000E+00   0.00000000000000E+00   0.00000000000000E+00   0.00000000000000E+00
      3.37144511460555E-18   0.00000000000000E+00   0.00000000000000E+00   0.00000000000000E+00   0.00000000000000E+00
      1.22667700434160E-16   2.60054477058047E-34   1.22667700434160E-16  -1.18066195374774E-17   7.88785386277484E-03
      7.88785355221155E-03   0.00000000000000E+00   0.00000000000000E+00   1.28086120362476E-09  -1.11933498253444E-34
      1.28086120362476E-09   3.85622409573988E-18
      1.67757077255497E-01
      0.00000000000000E+00   3.23728499369155E-10   0.00000000000000E+00   0.00000000000000E+00  -1.33963742770378E-09
     -1.07600045960712E-34  -1.33963742770378E-09   4.57885101114001E-18   0.00000000000000E+00   0.00000000000000E+00
      0.00000000000000E+00   0.00000000000000E+00   0.00000000000000E+00   0.00000000000000E+00   0.00000000000000E+00
      3.36531558436230E-18   0.00000000000000E+00   0.00000000000000E+00   0.00000000000000E+00   0.00000000000000E+00
      1.49772579928870E-16   2.25459525430994E-34   1.49772579928870E-16  -1.18063138582252E-17   8.38785386277484E-03
      8.38785353795119E-03   0.00000000000000E+00   0.00000000000000E+00   1.33963727793120E-09  -1.17859479470282E-34
      1.33963727793120E-09   3.86214726272282E-18
      1.77757077255497E-01
      0.00000000000000E+00   3.37405101888043E-10   0.00000000000000E+00   0.00000000000000E+00  -1.39619013835285E-09
     -1.49236592831269E-34  -1.39619013835285E-09   4.57875171077487E-18   0.00000000000000E+00   0.00000000000000E+00
      0.00000000000000E+00   0.00000000000000E+00   0.00000000000000E+00   0.00000000000000E+00   0.00000000000000E+00
      3.35918705481665E-18   0.00000000000000E+00   0.00000000000000E+00   0.00000000000000E+00   0.00000000000000E+00
      1.84968011516930E-16   2.56542876640905E-34   1.84968011516930E-16  -1.18060104975550E-17   8.88785386277484E-03
      8.88785352422936E-03   0.00000000000000E+00   0.00000000000000E+00   1.39618995338484E-09  -1.07306283809637E-34
      1.39618995338484E-09   3.86807173196352E-18
      1.87757077255497E-01
      0.00000000000000E+00   3.50562433171971E-10   0.00000000000000E+00   0.00000000000000E+00  -1.45059166101749E-09
     -1.25039766089580E-34  -1.45059166101749E-09   4.57865242586088E-18   0.00000000000000E+00   0.00000000000000E+00
      0.00000000000000E+00   0.00000000000000E+00   0.00000000000000E+00   0.00000000000000E+00   0.00000000000000E+00
      3.35305951694863E-18   0.00000000000000E+00   0.00000000000000E+00   0.00000000000000E+00   0.00000000000000E+00
      6.98393327602660E-17   2.22595509986422E-34   6.98393327602660E-17  -1.18057094391941E-17   9.38785386277484E-03
      9.38785351102856E-03   0.00000000000000E+00   0.00000000000000E+00   1.45059159117816E-09  -9.75557438968418E-35
      1.45059159117816E-09   3.87399749638455E-18
      1.97757077255497E-01
      0.00000000000000E+00   3.63217384548637E-10   0.00000000000000E+00   0.00000000000000E+00  -1.50291229353011E-09