DF-ISE text

Info {
  version   = 1.0
  type      = xyplot
  datasets  = [
    "time"
    "source OuterVoltage" "source InnerVoltage" "source QuasiFermiPotential" "source DisplacementCurrent" "source eCurrent"
    "source hCurrent" "source TotalCurrent" "source Charge" "gate OuterVoltage" "gate InnerVoltage"
    "gate QuasiFermiPotential" "gate DisplacementCurrent" "gate eCurrent" "gate hCurrent" "gate TotalCurrent"
    "gate Charge" "substrate OuterVoltage" "substrate InnerVoltage" "substrate QuasiFermiPotential" "substrate DisplacementCurrent"
    "substrate eCurrent" "substrate hCurrent" "substrate TotalCurrent" "substrate Charge" "drain OuterVoltage"
    "drain InnerVoltage" "drain QuasiFermiPotential" "drain DisplacementCurrent" "drain eCurrent" "drain hCurrent"
    "drain TotalCurrent" "drain Charge" ]
  functions = [
    Time
    OuterVoltage InnerVoltage QuasiFermiPotential DisplacementCurrent eCurrent
    hCurrent TotalCurrent Charge OuterVoltage InnerVoltage
    QuasiFermiPotential DisplacementCurrent eCurrent hCurrent TotalCurrent
    Charge OuterVoltage InnerVoltage QuasiFermiPotential DisplacementCurrent
    eCurrent hCurrent TotalCurrent Charge OuterVoltage
    InnerVoltage QuasiFermiPotential DisplacementCurrent eCurrent hCurrent
    TotalCurrent Charge ]
}

Data {
      0.00000000000000E+00
      0.00000000000000E+00   0.00000000000000E+00   0.00000000000000E+00   0.00000000000000E+00   1.45519090042591E-20
     -1.24344092424809E-34   1.45519090042590E-20   4.66876742291231E-18   0.00000000000000E+00   0.00000000000000E+00
      0.00000000000000E+00   0.00000000000000E+00   0.00000000000000E+00   0.00000000000000E+00   0.00000000000000E+00
      4.48297576036815E-18   0.00000000000000E+00   0.00000000000000E+00   0.00000000000000E+00   0.00000000000000E+00
     -1.25936294033515E-20   2.37884502469835E-34  -1.25936294033512E-20  -1.30644146380228E-17   0.00000000000000E+00
      0.00000000000000E+00   0.00000000000000E+00   0.00000000000000E+00  -1.95827960090766E-21  -1.13540410045026E-34
     -1.95827960090777E-21   3.91267145474236E-18
      0.00000000000000E+00
      0.00000000000000E+00   0.00000000000000E+00   0.00000000000000E+00   0.00000000000000E+00  -5.09531335103722E-20
     -9.46670682518599E-35  -5.09531335103723E-20   4.66726862598820E-18   0.00000000000000E+00   0.00000000000000E+00
      0.00000000000000E+00   0.00000000000000E+00   0.00000000000000E+00   0.00000000000000E+00   0.00000000000000E+00
      4.47670255229953E-18   0.00000000000000E+00   0.00000000000000E+00   0.00000000000000E+00   0.00000000000000E+00
      6.68683696071069E-20   2.06364767977372E-34   6.68683696071071E-20  -1.30554434719833E-17   0.00000000000000E+00
      0.00000000000000E+00   0.00000000000000E+00   0.00000000000000E+00  -1.59152360967346E-20  -1.11697699725512E-34
     -1.59152360967348E-20   3.91147229369558E-18
      1.00000000000000E-03
      0.00000000000000E+00   9.96781986997326E-13   0.00000000000000E+00   0.00000000000000E+00  -4.12092565936352E-12
     -1.09672444013973E-34  -4.12092565936352E-12   4.66725872450558E-18   0.00000000000000E+00   0.00000000000000E+00
      0.00000000000000E+00   0.00000000000000E+00   0.00000000000000E+00   0.00000000000000E+00   0.00000000000000E+00
      4.47613475671956E-18   0.00000000000000E+00   0.00000000000000E+00   0.00000000000000E+00   0.00000000000000E+00
     -1.14090142965583E-19   2.43373815328574E-34  -1.14090142965583E-19  -1.30554218412878E-17   5.00000000000000E-05
      4.99999990001621E-05   0.00000000000000E+00   0.00000000000000E+00   4.12092577345366E-12  -1.33701371314601E-34
      4.12092577345366E-12   3.91202836006262E-18
      2.09333333333333E-03
      0.00000000000000E+00   2.08342391064746E-12   0.00000000000000E+00   0.00000000000000E+00  -8.61335657276952E-12
     -1.16427097621505E-34  -8.61335657276952E-12   4.66724789899030E-18   0.00000000000000E+00   0.00000000000000E+00
      0.00000000000000E+00   0.00000000000000E+00   0.00000000000000E+00   0.00000000000000E+00   0.00000000000000E+00
      4.47551397484648E-18   0.00000000000000E+00   0.00000000000000E+00   0.00000000000000E+00   0.00000000000000E+00
      2.07111959531637E-19   2.53562432932601E-34   2.07111959531638E-19  -1.30553982115540E-17   1.04666666666667E-04
      1.04666664576859E-04   0.00000000000000E+00   0.00000000000000E+00   8.61335636565757E-12  -1.37135335311096E-34
      8.61335636565757E-12   3.91263633771723E-18
      3.29600000000000E-03
      0.00000000000000E+00   3.27478791933489E-12   0.00000000000000E+00   0.00000000000000E+00  -1.35386932787431E-11
     -1.06376961828899E-34  -1.35386932787431E-11   4.66723599105146E-18   0.00000000000000E+00   0.00000000000000E+00
      0.00000000000000E+00   0.00000000000000E+00   0.00000000000000E+00   0.00000000000000E+00   0.00000000000000E+00
      4.47483112438209E-18   0.00000000000000E+00   0.00000000000000E+00   0.00000000000000E+00   0.00000000000000E+00
     -1.16123267768832E-19   2.21021513851468E-34  -1.16123267768832E-19  -1.30553722427500E-17   1.64800000000000E-04
      1.64799996715187E-04   0.00000000000000E+00   0.00000000000000E+00   1.35386933948664E-11  -1.14644552022569E-34
      1.35386933948664E-11   3.91330512731642E-18
      4.61893333333333E-03
      0.00000000000000E+00   4.58042944409559E-12   0.00000000000000E+00   0.00000000000000E+00  -1.89364467744519E-11
     -1.06420885603404E-34  -1.89364467744519E-11   4.66722289247387E-18   0.00000000000000E+00   0.00000000000000E+00
      0.00000000000000E+00   0.00000000000000E+00   0.00000000000000E+00   0.00000000000000E+00   0.00000000000000E+00
      4.47408000047050E-18   0.00000000000000E+00   0.00000000000000E+00   0.00000000000000E+00   0.00000000000000E+00
      9.46571351080858E-20   2.29638710402573E-34   9.46571351080860E-20  -1.30553437059650E-17   2.30946666666667E-04
      2.30946662072223E-04   0.00000000000000E+00   0.00000000000000E+00   1.89364466797947E-11  -1.23217824799169E-34
      1.89364466797947E-11   3.91404081302057E-18
      6.07416000000000E-03
      0.00000000000000E+00   6.01067863228782E-12   0.00000000000000E+00   0.00000000000000E+00  -2.48493386537925E-11
     -1.12594698346141E-34  -2.48493386537925E-11   4.66720848422637E-18   0.00000000000000E+00   0.00000000000000E+00
      0.00000000000000E+00   0.00000000000000E+00   0.00000000000000E+00   0.00000000000000E+00   0.00000000000000E+00
      4.47325377818699E-18   0.00000000000000E+00   0.00000000000000E+00   0.00000000000000E+00   0.00000000000000E+00
      1.02751242435367E-19   2.31408262576265E-34   1.02751242435367E-19  -1.30553123504387E-17   3.03708000000000E-04
      3.03707993970938E-04   0.00000000000000E+00   0.00000000000000E+00   2.48493385510412E-11  -1.18813564230125E-34
      2.48493385510412E-11   3.91485008802535E-18
      7.67490933333333E-03
      0.00000000000000E+00   7.57668686635511E-12   0.00000000000000E+00   0.00000000000000E+00  -3.13234441603792E-11
     -9.47570986500014E-35  -3.13234441603792E-11   4.66719263538154E-18   0.00000000000000E+00   0.00000000000000E+00
      0.00000000000000E+00   0.00000000000000E+00   0.00000000000000E+00   0.00000000000000E+00   0.00000000000000E+00
      4.47234495061726E-18   0.00000000000000E+00   0.00000000000000E+00   0.00000000000000E+00   0.00000000000000E+00
      2.01538077762173E-21   2.27430401977031E-34   2.01538077762196E-21  -1.30552779015929E-17   3.83745466666667E-04
      3.83745459066798E-04   0.00000000000000E+00   0.00000000000000E+00   3.13234441583638E-11  -1.32673303327030E-34
      3.13234441583638E-11   3.91574031559407E-18
      9.43573360000000E-03
      0.00000000000000E+00   9.29043869171426E-12   0.00000000000000E+00   0.00000000000000E+00  -3.84083265401974E-11
     -1.14287199844495E-34  -3.84083265401974E-11   4.66717520192738E-18   0.00000000000000E+00   0.00000000000000E+00
      0.00000000000000E+00   0.00000000000000E+00   0.00000000000000E+00   0.00000000000000E+00   0.00000000000000E+00
      4.47134526076252E-18   0.00000000000000E+00   0.00000000000000E+00   0.00000000000000E+00   0.00000000000000E+00
      3.15672502480078E-20   2.28269416443073E-34   3.15672502480080E-20  -1.30552400589098E-17   4.71786680000000E-04
      4.71786670681146E-04   0.00000000000000E+00   0.00000000000000E+00   3.84083265086301E-11  -1.13982216598578E-34
      3.84083265086301E-11   3.91671959621992E-18
      1.13726402933333E-02
      0.00000000000000E+00   1.11648048958567E-11   0.00000000000000E+00   0.00000000000000E+00  -4.61571510288379E-11
     -9.92777834433961E-35  -4.61571510288379E-11   4.66715602546066E-18   0.00000000000000E+00   0.00000000000000E+00
      0.00000000000000E+00   0.00000000000000E+00   0.00000000000000E+00   0.00000000000000E+00   0.00000000000000E+00
      4.47024562665612E-18   0.00000000000000E+00   0.00000000000000E+00   0.00000000000000E+00   0.00000000000000E+00
     -8.75771280820339E-20   2.13429701722302E-34  -8.75771280820337E-20  -1.30551984936534E-17   5.68632014666667E-04
      5.68632003467706E-04   0.00000000000000E+00   0.00000000000000E+00   4.61571511164151E-11  -1.14151918278905E-34
      4.61571511164151E-11   3.91779684153658E-18
      1.35032376560000E-02
      0.00000000000000E+00   1.32135520506587E-11   0.00000000000000E+00   0.00000000000000E+00  -5.46267684790058E-11
     -9.64358284710386E-35  -5.46267684790058E-11   4.66713493174977E-18   0.00000000000000E+00   0.00000000000000E+00
      0.00000000000000E+00   0.00000000000000E+00   0.00000000000000E+00   0.00000000000000E+00   0.00000000000000E+00
      4.46903605901758E-18   0.00000000000000E+00   0.00000000000000E+00   0.00000000000000E+00   0.00000000000000E+00
     -5.13974962385443E-20   2.16530342904526E-34  -5.13974962385440E-20  -1.30551528464260E-17   6.75161882800000E-04
      6.75161869546037E-04   0.00000000000000E+00   0.00000000000000E+00   5.46267685304032E-11  -1.20094514433488E-34
      5.46267685304032E-11   3.91898185565858E-18
      1.58468947549333E-02
      0.00000000000000E+00   1.54513162710282E-11   0.00000000000000E+00   0.00000000000000E+00  -6.38777538137899E-11
     -1.15019141966847E-34  -6.38777538137899E-11   4.66711172915441E-18   0.00000000000000E+00   0.00000000000000E+00
      0.00000000000000E+00   0.00000000000000E+00   0.00000000000000E+00   0.00000000000000E+00   0.00000000000000E+00
      4.46770557070257E-18   0.00000000000000E+00   0.00000000000000E+00   0.00000000000000E+00   0.00000000000000E+00
      1.10500219282359E-19   2.39368755903420E-34   1.10500219282359E-19  -1.30551027245593E-17   7.92344737746667E-04
      7.92344722248100E-04   0.00000000000000E+00   0.00000000000000E+00   6.38777537032898E-11  -1.24349613936573E-34
      6.38777537032898E-11   3.92028542470235E-18
      1.84249175637600E-02
      0.00000000000000E+00   1.78936676254995E-11   0.00000000000000E+00   0.00000000000000E+00  -7.39743878011814E-11
     -9.31668628614294E-35  -7.39743878011814E-11   4.66708620688761E-18   0.00000000000000E+00   0.00000000000000E+00
      0.00000000000000E+00   0.00000000000000E+00   0.00000000000000E+00   0.00000000000000E+00   0.00000000000000E+00
      4.46624207713468E-18   0.00000000000000E+00   0.00000000000000E+00   0.00000000000000E+00   0.00000000000000E+00
      1.12022433546089E-19   2.11657275973990E-34   1.12022433546089E-19  -1.30550476993376E-17   9.21245878188001E-04
      9.21245860239616E-04   0.00000000000000E+00   0.00000000000000E+00   7.39743876891589E-11  -1.18490413112561E-34
      7.39743876891589E-11   3.92171941531538E-18
      2.12607426534693E-02
      0.00000000000000E+00   2.05570427436663E-11   0.00000000000000E+00   0.00000000000000E+00  -8.49845657906204E-11
     -9.64593923258302E-35  -8.49845657906204E-11   4.66705813310471E-18   0.00000000000000E+00   0.00000000000000E+00
      0.00000000000000E+00   0.00000000000000E+00   0.00000000000000E+00   0.00000000000000E+00   0.00000000000000E+00
      4.46463228682453E-18   0.00000000000000E+00   0.00000000000000E+00   0.00000000000000E+00   0.00000000000000E+00
      1.71974927102668E-19   2.31755697873856E-34   1.71974927102668E-19  -1.30549873030550E-17   1.06303713267347E-03
      1.06303711205358E-03   0.00000000000000E+00   0.00000000000000E+00   8.49845656186455E-11  -1.35296305548025E-34
      8.49845656186455E-11   3.92329688312585E-18
      2.43801502521496E-02
      0.00000000000000E+00   2.34586863695310E-11   0.00000000000000E+00   0.00000000000000E+00  -9.69796109507922E-11
     -1.13210060609850E-34  -9.69796109507922E-11   4.66702725280180E-18   0.00000000000000E+00   0.00000000000000E+00
      0.00000000000000E+00   0.00000000000000E+00   0.00000000000000E+00   0.00000000000000E+00   0.00000000000000E+00
      4.46286158099374E-18   0.00000000000000E+00   0.00000000000000E+00   0.00000000000000E+00   0.00000000000000E+00
      2.51383930091775E-19   2.20364556247643E-34   2.51383930091775E-19  -1.30549210259139E-17   1.21900751260748E-03
      1.21900748907709E-03   0.00000000000000E+00   0.00000000000000E+00   9.69796106994082E-11  -1.07154495637793E-34
      9.69796106994082E-11   3.92503219211839E-18
      2.78114986106979E-02
      0.00000000000000E+00   2.66166298913059E-11   0.00000000000000E+00   0.00000000000000E+00  -1.10033973741872E-10
     -9.32632990225281E-35  -1.10033973741872E-10   4.66699328550498E-18   0.00000000000000E+00   0.00000000000000E+00
      0.00000000000000E+00   0.00000000000000E+00   0.00000000000000E+00   0.00000000000000E+00   0.00000000000000E+00
      4.46091388122411E-18   0.00000000000000E+00   0.00000000000000E+00   0.00000000000000E+00   0.00000000000000E+00
      5.13614869163952E-19   1.90480667976727E-34   5.13614869163952E-19  -1.30548483127738E-17   1.39057493053490E-03
      1.39057490383691E-03   0.00000000000000E+00   0.00000000000000E+00   1.10033973228257E-10  -9.72173689541989E-35
      1.10033973228257E-10   3.92694114604473E-18
      3.15859818051010E-02
      0.00000000000000E+00   3.00495547670971E-11   0.00000000000000E+00   0.00000000000000E+00  -1.24224788415985E-10
     -9.91489210768080E-35  -1.24224788415985E-10   4.66695592272943E-18   0.00000000000000E+00   0.00000000000000E+00
      0.00000000000000E+00   0.00000000000000E+00   0.00000000000000E+00   0.00000000000000E+00   0.00000000000000E+00
      4.45877150394751E-18   0.00000000000000E+00   0.00000000000000E+00   0.00000000000000E+00   0.00000000000000E+00
      7.20237420671148E-19   2.02541501105786E-34   7.20237420671148E-19  -1.30547685597694E-17   1.57929909025505E-03
      1.57929906011366E-03   0.00000000000000E+00   0.00000000000000E+00   1.24224787695748E-10  -1.03392580028978E-34
      1.24224787695748E-10   3.92904113309250E-18
      3.57379133189445E-02
      0.00000000000000E+00   3.37766374623600E-11   0.00000000000000E+00   0.00000000000000E+00  -1.39631258833030E-10
     -1.08240584197539E-34  -1.39631258833030E-10   4.66691482518574E-18   0.00000000000000E+00   0.00000000000000E+00
      0.00000000000000E+00   0.00000000000000E+00   0.00000000000000E+00   0.00000000000000E+00   0.00000000000000E+00
      4.45641500047479E-18   0.00000000000000E+00   0.00000000000000E+00   0.00000000000000E+00   0.00000000000000E+00
      1.41279056849720E-18   2.27933248126158E-34   1.41279056849720E-18  -1.30546811108218E-17   1.78689566594722E-03
      1.78689563206738E-03   0.00000000000000E+00   0.00000000000000E+00   1.39631257420239E-10  -1.19692663928619E-34
      1.39631257420239E-10   3.93135128516126E-18
      4.03050379841723E-02
      0.00000000000000E+00   3.78173514469603E-11   0.00000000000000E+00   0.00000000000000E+00  -1.56333837122541E-10
     -8.76791065085100E-35  -1.56333837122541E-10   4.66686961970820E-18   0.00000000000000E+00   0.00000000000000E+00
      0.00000000000000E+00   0.00000000000000E+00   0.00000000000000E+00   0.00000000000000E+00   0.00000000000000E+00
      4.45382298113518E-18   0.00000000000000E+00   0.00000000000000E+00   0.00000000000000E+00   0.00000000000000E+00
      2.06886837642091E-18   2.13558071711808E-34   2.06886837642091E-18  -1.30545852540779E-17   2.01525189920861E-03
      2.01525186127573E-03   0.00000000000000E+00   0.00000000000000E+00   1.56333835053672E-10  -1.25878965203298E-34
      1.56333835053672E-10   3.93389265323449E-18
      4.53288751159228E-02
      0.00000000000000E+00   4.21912346013586E-11   0.00000000000000E+00   0.00000000000000E+00  -1.74413167170665E-10
     -9.04139553056198E-35  -1.74413167170665E-10   4.66681989587764E-18   0.00000000000000E+00   0.00000000000000E+00
      0.00000000000000E+00   0.00000000000000E+00   0.00000000000000E+00   0.00000000000000E+00   0.00000000000000E+00
      4.45097192195542E-18   0.00000000000000E+00   0.00000000000000E+00   0.00000000000000E+00   0.00000000000000E+00
      3.30035585683083E-18   2.08406734473448E-34   3.30035585683083E-18  -1.30544802183225E-17   2.26644375579614E-03
      2.26644371347603E-03   0.00000000000000E+00   0.00000000000000E+00   1.74413163870309E-10  -1.17992779167828E-34
      1.74413163870309E-10   3.93668840048944E-18
      5.08550959608485E-02
      0.00000000000000E+00   4.69175492718035E-11   0.00000000000000E+00   0.00000000000000E+00  -1.93948738704635E-10
     -1.00418992521064E-34  -1.93948738704635E-10   4.66676520230863E-18   0.00000000000000E+00   0.00000000000000E+00
      0.00000000000000E+00   0.00000000000000E+00   0.00000000000000E+00   0.00000000000000E+00   0.00000000000000E+00
      4.44783595216060E-18   0.00000000000000E+00   0.00000000000000E+00   0.00000000000000E+00   0.00000000000000E+00
      4.98359941887596E-18   2.01145104247877E-34   4.98359941887596E-18  -1.30543651694289E-17   2.54275479804242E-03
      2.54275475098158E-03   0.00000000000000E+00   0.00000000000000E+00   1.93948733721035E-10  -1.00726111726813E-34
      1.93948733721035E-10   3.93976401495964E-18
      5.69339388902666E-02
      0.00000000000000E+00   5.20148814932975E-11   0.00000000000000E+00   0.00000000000000E+00  -2.15017222157661E-10
     -1.24895037720471E-34  -2.15017222157661E-10   4.66670504256768E-18   0.00000000000000E+00   0.00000000000000E+00
      0.00000000000000E+00   0.00000000000000E+00   0.00000000000000E+00   0.00000000000000E+00   0.00000000000000E+00
      4.44438662060370E-18   0.00000000000000E+00   0.00000000000000E+00   0.00000000000000E+00   0.00000000000000E+00
      7.37310027575533E-18   2.26236256252059E-34   7.37310027575533E-18  -1.30542392069224E-17   2.84669694451333E-03
      2.84669689233961E-03   0.00000000000000E+00   0.00000000000000E+00   2.15017214784561E-10  -1.01341218531587E-34
      2.15017214784561E-10   3.94314754375100E-18
      6.36206661126266E-02
      0.00000000000000E+00   5.75006513497956E-11   0.00000000000000E+00   0.00000000000000E+00  -2.37690437659653E-10
     -1.01002537794263E-34  -2.37690437659653E-10   4.66663887068608E-18   0.00000000000000E+00   0.00000000000000E+00
      0.00000000000000E+00   0.00000000000000E+00   0.00000000000000E+00   0.00000000000000E+00   0.00000000000000E+00
      4.44059263904967E-18   0.00000000000000E+00   0.00000000000000E+00   0.00000000000000E+00   0.00000000000000E+00
      1.09294430302875E-17   2.10600431650670E-34   1.09294430302875E-17  -1.30541013607584E-17   3.18103330563133E-03
      3.18103324795512E-03   0.00000000000000E+00   0.00000000000000E+00   2.37690426730209E-10  -1.09597893856407E-34
      2.37690426730209E-10   3.94686985102266E-18
      7.09760660572226E-02
      0.00000000000000E+00   6.33905225437524E-11   0.00000000000000E+00   0.00000000000000E+00  -2.62032918032817E-10
     -1.21821237678164E-34  -2.62032918032817E-10   4.66656608622729E-18   0.00000000000000E+00   0.00000000000000E+00
      0.00000000000000E+00   0.00000000000000E+00   0.00000000000000E+00   0.00000000000000E+00   0.00000000000000E+00
      4.43641960003792E-18   0.00000000000000E+00   0.00000000000000E+00   0.00000000000000E+00   0.00000000000000E+00
      1.35958945335446E-17   2.35364864691682E-34   1.35958945335446E-17  -1.30539505884397E-17   3.54880330286113E-03
      3.54880323927710E-03   0.00000000000000E+00   0.00000000000000E+00   2.62032904436923E-10  -1.13543627013517E-34
      2.62032904436923E-10   3.95096490217451E-18
      7.90670059962782E-02
      0.00000000000000E+00   6.96976563067310E-11   0.00000000000000E+00   0.00000000000000E+00  -2.88098857562683E-10
     -7.17512297486709E-35  -2.88098857562683E-10   4.66648602886546E-18   0.00000000000000E+00   0.00000000000000E+00
      0.00000000000000E+00   0.00000000000000E+00   0.00000000000000E+00   0.00000000000000E+00   0.00000000000000E+00
      4.43182966689372E-18   0.00000000000000E+00   0.00000000000000E+00   0.00000000000000E+00   0.00000000000000E+00
      2.21820525177852E-17   1.77354190494562E-34   2.21820525177852E-17  -1.30537857727128E-17   3.95335029981391E-03
      3.95335022990352E-03   0.00000000000000E+00   0.00000000000000E+00   2.88098835380630E-10  -1.05602960745891E-34
      2.88098835380630E-10   3.95547007695361E-18
      8.79670399292394E-02
      0.00000000000000E+00   7.64320386665223E-11   0.00000000000000E+00   0.00000000000000E+00  -3.15929208165655E-10
     -1.12546810949805E-34  -3.15929208165655E-10   4.66639797242377E-18   0.00000000000000E+00   0.00000000000000E+00
      0.00000000000000E+00   0.00000000000000E+00   0.00000000000000E+00   0.00000000000000E+00   0.00000000000000E+00
      4.42678123283438E-18   0.00000000000000E+00   0.00000000000000E+00   0.00000000000000E+00   0.00000000000000E+00
      3.51057785138932E-17   2.06045047600336E-34   3.51057785138932E-17  -1.30536057196556E-17   4.39835199646197E-03
      4.39835191979669E-03   0.00000000000000E+00   0.00000000000000E+00   3.15929173059877E-10  -9.34982366505306E-35
      3.15929173059877E-10   3.96042651439742E-18
      9.77570772554967E-02
      0.00000000000000E+00   8.35993979913137E-11   0.00000000000000E+00   0.00000000000000E+00  -3.45547419158335E-10
     -1.11444465235063E-34  -3.45547419158335E-10   4.66630111832527E-18   0.00000000000000E+00   0.00000000000000E+00
      0.00000000000000E+00   0.00000000000000E+00   0.00000000000000E+00   0.00000000000000E+00   0.00000000000000E+00
      4.42122854674715E-18   0.00000000000000E+00   0.00000000000000E+00   0.00000000000000E+00   0.00000000000000E+00
      5.12452861894135E-17   2.28336650421554E-34   5.12452861894135E-17  -1.30534091580988E-17   4.88785386277484E-03
      4.88785377892035E-03   0.00000000000000E+00   0.00000000000000E+00   3.45547367913049E-10  -1.16892185186491E-34
      3.45547367913049E-10   3.96587949302639E-18
      1.07757077255497E-01
      0.00000000000000E+00   9.06671415598989E-11   0.00000000000000E+00   0.00000000000000E+00  -3.74752347016027E-10
     -1.01637423582244E-34  -3.74752347016027E-10   4.66620219559977E-18   0.00000000000000E+00   0.00000000000000E+00
      0.00000000000000E+00   0.00000000000000E+00   0.00000000000000E+00   0.00000000000000E+00   0.00000000000000E+00
      4.41555740913969E-18   0.00000000000000E+00   0.00000000000000E+00   0.00000000000000E+00   0.00000000000000E+00
      5.94724015068233E-17   2.16589295618000E-34   5.94724015068233E-17  -1.30532099898144E-17   5.38785386277483E-03
      5.38785377183110E-03   0.00000000000000E+00   0.00000000000000E+00   3.74752287543626E-10  -1.14951872035756E-34
      3.74752287543626E-10   3.97145038507496E-18
      1.17757077255497E-01
      0.00000000000000E+00   9.74859190944791E-11   0.00000000000000E+00   0.00000000000000E+00  -4.02926972818880E-10
     -8.64068057253597E-35  -4.02926972818880E-10   4.66610328144339E-18   0.00000000000000E+00   0.00000000000000E+00
      0.00000000000000E+00   0.00000000000000E+00   0.00000000000000E+00   0.00000000000000E+00   0.00000000000000E+00
      4.40988690747302E-18   0.00000000000000E+00   0.00000000000000E+00   0.00000000000000E+00   0.00000000000000E+00
      5.98497076470085E-17   1.90405620586345E-34   5.98497076470085E-17  -1.30530124369515E-17   5.88785386277483E-03
      5.88785376499156E-03   0.00000000000000E+00   0.00000000000000E+00   4.02926912969172E-10  -1.03998814860985E-34
      4.02926912969172E-10   3.97702224803510E-18
      1.27757077255497E-01
      0.00000000000000E+00   1.04062737632830E-10   0.00000000000000E+00   0.00000000000000E+00  -4.30100376108229E-10
     -1.12289952071512E-34  -4.30100376108229E-10   4.66600437577424E-18   0.00000000000000E+00   0.00000000000000E+00
      0.00000000000000E+00   0.00000000000000E+00   0.00000000000000E+00   0.00000000000000E+00   0.00000000000000E+00
      4.40421703657823E-18   0.00000000000000E+00   0.00000000000000E+00   0.00000000000000E+00   0.00000000000000E+00
      5.72034716234272E-17   2.17937412289563E-34   5.72034716234272E-17  -1.30528164891904E-17   6.38785386277483E-03
      6.38785375839471E-03   0.00000000000000E+00   0.00000000000000E+00   4.30100318904757E-10  -1.05647460218051E-34
      4.30100318904757E-10   3.98259507683793E-18
      1.37757077255497E-01
      0.00000000000000E+00   1.10404599441572E-10   0.00000000000000E+00   0.00000000000000E+00  -4.56301634445866E-10
     -7.92407475313585E-35  -4.56301634445866E-10   4.66590547850921E-18   0.00000000000000E+00   0.00000000000000E+00
      0.00000000000000E+00   0.00000000000000E+00   0.00000000000000E+00   0.00000000000000E+00   0.00000000000000E+00
      4.39854779121893E-18   0.00000000000000E+00   0.00000000000000E+00   0.00000000000000E+00   0.00000000000000E+00
      5.82248770549393E-17   1.85408516798779E-34   5.82248770549393E-17  -1.30526221361489E-17   6.88785386277483E-03
      6.88785375203352E-03   0.00000000000000E+00   0.00000000000000E+00   4.56301576220989E-10  -1.06167769267420E-34
      4.56301576220989E-10   3.98816886642085E-18
      1.47757077255497E-01
      0.00000000000000E+00   1.16518501419777E-10   0.00000000000000E+00   0.00000000000000E+00  -4.81559624289002E-10
     -8.67445923250115E-35  -4.81559624289002E-10   4.66580658956445E-18   0.00000000000000E+00   0.00000000000000E+00
      0.00000000000000E+00   0.00000000000000E+00   0.00000000000000E+00   0.00000000000000E+00   0.00000000000000E+00
      4.39287916613285E-18   0.00000000000000E+00   0.00000000000000E+00   0.00000000000000E+00   0.00000000000000E+00
      5.70446461810074E-17   1.86405024969938E-34   5.70446461810074E-17  -1.30524293674323E-17   7.38785386277483E-03
      7.38785374590100E-03   0.00000000000000E+00   0.00000000000000E+00   4.81559567244355E-10  -9.96604326449265E-35
      4.81559567244355E-10   3.99374361173502E-18
      1.57757077255497E-01
      0.00000000000000E+00   1.22411204890727E-10   0.00000000000000E+00   0.00000000000000E+00  -5.05902597245214E-10
     -1.05982765566122E-34  -5.05902597245214E-10   4.66570770885707E-18   0.00000000000000E+00   0.00000000000000E+00
      0.00000000000000E+00   0.00000000000000E+00   0.00000000000000E+00   0.00000000000000E+00   0.00000000000000E+00
      4.38721115619455E-18   0.00000000000000E+00   0.00000000000000E+00   0.00000000000000E+00   0.00000000000000E+00
      5.64328275340047E-17   1.85960595509985E-34   5.64328275340047E-17  -1.30522381728318E-17   7.88785386277484E-03
      7.88785373999032E-03   0.00000000000000E+00   0.00000000000000E+00   5.05902540812386E-10  -7.99778299438630E-35
      5.05902540812386E-10   3.99931930778015E-18
      1.67757077255497E-01
      0.00000000000000E+00   1.28089480720018E-10   0.00000000000000E+00   0.00000000000000E+00  -5.29358444775457E-10
     -1.12994940901446E-34  -5.29358444775457E-10   4.66560883630391E-18   0.00000000000000E+00   0.00000000000000E+00
      0.00000000000000E+00   0.00000000000000E+00   0.00000000000000E+00   0.00000000000000E+00   0.00000000000000E+00
      4.38154375628111E-18   0.00000000000000E+00   0.00000000000000E+00   0.00000000000000E+00   0.00000000000000E+00
      5.55154552464279E-17   2.19252345278343E-34   5.55154552464279E-17  -1.30520485421656E-17   8.38785386277484E-03
      8.38785373429472E-03   0.00000000000000E+00   0.00000000000000E+00   5.29358389260002E-10  -1.06257404376897E-34
      5.29358389260002E-10   4.00489594958061E-18
      1.77757077255497E-01
      0.00000000000000E+00   1.33559878510921E-10   0.00000000000000E+00   0.00000000000000E+00  -5.51954501534718E-10
     -1.07091278938715E-34  -5.51954501534718E-10   4.66550997182223E-18   0.00000000000000E+00   0.00000000000000E+00
      0.00000000000000E+00   0.00000000000000E+00   0.00000000000000E+00   0.00000000000000E+00   0.00000000000000E+00
      4.37587696133153E-18   0.00000000000000E+00   0.00000000000000E+00   0.00000000000000E+00   0.00000000000000E+00
      5.48729765796524E-17   1.93248794599062E-34   5.48729765796524E-17  -1.30518604653458E-17   8.88785386277484E-03
      8.88785372880760E-03   0.00000000000000E+00   0.00000000000000E+00   5.51954446661742E-10  -8.61575156603463E-35
      5.51954446661742E-10   4.01047353219203E-18
      1.87757077255497E-01
      0.00000000000000E+00   1.38828885841694E-10   0.00000000000000E+00   0.00000000000000E+00  -5.73717547217670E-10
     -1.06816523200292E-34  -5.73717547217670E-10   4.66541111532966E-18   0.00000000000000E+00   0.00000000000000E+00
      0.00000000000000E+00   0.00000000000000E+00   0.00000000000000E+00   0.00000000000000E+00   0.00000000000000E+00
      4.37021076633807E-18   0.00000000000000E+00   0.00000000000000E+00   0.00000000000000E+00   0.00000000000000E+00
      5.39375043664108E-17   1.94889795899136E-34   5.39375043664108E-17  -1.30516739323708E-17   9.38785386277484E-03
      9.38785372352248E-03   0.00000000000000E+00   0.00000000000000E+00   5.73717493280166E-10  -8.80732726988446E-35
      5.73717493280166E-10   4.01605205070298E-18
      1.97757077255497E-01
      0.00000000000000E+00   1.43902815547032E-10   0.00000000000000E+00   0.00000000000000E+00  -5.94673784077932E-10