DF-ISE text

Info {
  version   = 1.0
  type      = xyplot
  datasets  = [
    "time"
    "source OuterVoltage" "source InnerVoltage" "source QuasiFermiPotential" "source DisplacementCurrent" "source eCurrent"
    "source hCurrent" "source TotalCurrent" "source Charge" "gate OuterVoltage" "gate InnerVoltage"
    "gate QuasiFermiPotential" "gate DisplacementCurrent" "gate eCurrent" "gate hCurrent" "gate TotalCurrent"
    "gate Charge" "substrate OuterVoltage" "substrate InnerVoltage" "substrate QuasiFermiPotential" "substrate DisplacementCurrent"
    "substrate eCurrent" "substrate hCurrent" "substrate TotalCurrent" "substrate Charge" "drain OuterVoltage"
    "drain InnerVoltage" "drain QuasiFermiPotential" "drain DisplacementCurrent" "drain eCurrent" "drain hCurrent"
    "drain TotalCurrent" "drain Charge" ]
  functions = [
    Time
    OuterVoltage InnerVoltage QuasiFermiPotential DisplacementCurrent eCurrent
    hCurrent TotalCurrent Charge OuterVoltage InnerVoltage
    QuasiFermiPotential DisplacementCurrent eCurrent hCurrent TotalCurrent
    Charge OuterVoltage InnerVoltage QuasiFermiPotential DisplacementCurrent
    eCurrent hCurrent TotalCurrent Charge OuterVoltage
    InnerVoltage QuasiFermiPotential DisplacementCurrent eCurrent hCurrent
    TotalCurrent Charge ]
}

Data {
      0.00000000000000E+00
      0.00000000000000E+00   0.00000000000000E+00   0.00000000000000E+00   0.00000000000000E+00  -6.85782918944061E-21
      4.76629566212657E-34  -6.85782918944014E-21   4.63556015786951E-18   0.00000000000000E+00   0.00000000000000E+00
      0.00000000000000E+00   0.00000000000000E+00   0.00000000000000E+00   0.00000000000000E+00   0.00000000000000E+00
      1.86437461995170E-18   0.00000000000000E+00   0.00000000000000E+00   0.00000000000000E+00   0.00000000000000E+00
      1.56075510515008E-20  -9.33897880397570E-34   1.56075510514998E-20  -1.08187234433104E-17   0.00000000000000E+00
      0.00000000000000E+00   0.00000000000000E+00   0.00000000000000E+00  -8.74972186206018E-21   4.57268314184913E-34
     -8.74972186205972E-21   4.31878866548919E-18
      0.00000000000000E+00
      0.00000000000000E+00   0.00000000000000E+00   0.00000000000000E+00   0.00000000000000E+00  -8.91690939496239E-20
      4.74517420748550E-34  -8.91690939496235E-20   4.63403778173231E-18   0.00000000000000E+00   0.00000000000000E+00
      0.00000000000000E+00   0.00000000000000E+00   0.00000000000000E+00   0.00000000000000E+00   0.00000000000000E+00
      1.85974451113458E-18   0.00000000000000E+00   0.00000000000000E+00   0.00000000000000E+00   0.00000000000000E+00
      3.68944056354160E-19  -9.05063414994176E-34   3.68944056354159E-19  -1.08113044509060E-17   0.00000000000000E+00
      0.00000000000000E+00   0.00000000000000E+00   0.00000000000000E+00  -2.79774962404537E-19   4.30545994245625E-34
     -2.79774962404536E-19   4.31752215803905E-18
      1.00000000000000E-03
      0.00000000000000E+00   5.36444981646395E-11   0.00000000000000E+00   0.00000000000000E+00  -2.52993624244457E-10
      4.56789762706338E-34  -2.52993624244457E-10   4.63359376927550E-18   0.00000000000000E+00   0.00000000000000E+00
      0.00000000000000E+00   0.00000000000000E+00   0.00000000000000E+00   0.00000000000000E+00   0.00000000000000E+00
      1.84875704156955E-18   0.00000000000000E+00   0.00000000000000E+00   0.00000000000000E+00   0.00000000000000E+00
     -6.43723436465766E-20  -8.91391612858998E-34  -6.43723436465775E-20  -1.08106423791186E-17   8.60000000000000E-04
      8.59999946225417E-04   0.00000000000000E+00   0.00000000000000E+00   2.52993624308829E-10   4.34601850152659E-34
      2.52993624308829E-10   4.32829156827354E-18
      2.08666666666667E-03
      0.00000000000000E+00   1.08243257616050E-10   0.00000000000000E+00   0.00000000000000E+00  -5.10470420291697E-10
      4.61861573186534E-34  -5.10470420291697E-10   4.63311140002871E-18   0.00000000000000E+00   0.00000000000000E+00
      0.00000000000000E+00   0.00000000000000E+00   0.00000000000000E+00   0.00000000000000E+00   0.00000000000000E+00
      1.83682008955489E-18   0.00000000000000E+00   0.00000000000000E+00   0.00000000000000E+00   0.00000000000000E+00
     -1.19877885290729E-19  -8.76961832255064E-34  -1.19877885290730E-19  -1.08099302477639E-17   1.79453333333333E-03
      1.79453322482792E-03   0.00000000000000E+00   0.00000000000000E+00   5.10470420411575E-10   4.15100259068528E-34
      5.10470420411575E-10   4.33999875818024E-18
      3.27475555555556E-03
      0.00000000000000E+00   1.63608079081906E-10   0.00000000000000E+00   0.00000000000000E+00  -7.71537026420217E-10
      4.70855124469484E-34  -7.71537026420217E-10   4.63258415661231E-18   0.00000000000000E+00   0.00000000000000E+00
      0.00000000000000E+00   0.00000000000000E+00   0.00000000000000E+00   0.00000000000000E+00   0.00000000000000E+00
      1.82377227290562E-18   0.00000000000000E+00   0.00000000000000E+00   0.00000000000000E+00   0.00000000000000E+00
      5.84381822143627E-20  -8.66761134141709E-34   5.84381822143618E-20  -1.08091602829711E-17   2.81628977777778E-03
      2.81628961377390E-03   0.00000000000000E+00   0.00000000000000E+00   7.71537026361779E-10   3.95906009672224E-34
      7.71537026361779E-10   4.35280385345317E-18
      4.57373274074074E-03
      0.00000000000000E+00   2.19209353163859E-10   0.00000000000000E+00   0.00000000000000E+00  -1.03369249636643E-09
      4.51963331104297E-34  -1.03369249636643E-09   4.63200787722121E-18   0.00000000000000E+00   0.00000000000000E+00
      0.00000000000000E+00   0.00000000000000E+00   0.00000000000000E+00   0.00000000000000E+00   0.00000000000000E+00
      1.80951048911062E-18   0.00000000000000E+00   0.00000000000000E+00   0.00000000000000E+00   0.00000000000000E+00
      7.04459183786023E-22  -8.58032950511877E-34   7.04459183785165E-22  -1.08083286550807E-17   3.93341015703704E-03
      3.93340993729788E-03   0.00000000000000E+00   0.00000000000000E+00   1.03369249636573E-09   4.06069619407580E-34
      1.03369249636573E-09   4.36681028874885E-18
      5.99394779654321E-03
      0.00000000000000E+00   2.74482763665242E-10   0.00000000000000E+00   0.00000000000000E+00  -1.29427444829189E-09
      4.79979892304807E-34  -1.29427444829189E-09   4.63137801571848E-18   0.00000000000000E+00   0.00000000000000E+00
      0.00000000000000E+00   0.00000000000000E+00   0.00000000000000E+00   0.00000000000000E+00   0.00000000000000E+00
      1.79392210935684E-18   0.00000000000000E+00   0.00000000000000E+00   0.00000000000000E+00   0.00000000000000E+00
     -1.40072019856284E-19  -8.38392603991202E-34  -1.40072019856285E-19  -1.08074314490948E-17   5.15479510502716E-03
      5.15479482988157E-03   0.00000000000000E+00   0.00000000000000E+00   1.29427444843196E-09   3.58412711686395E-34
      1.29427444843196E-09   4.38213132401944E-18
      7.54671625755391E-03
      0.00000000000000E+00   3.28830313928351E-10   0.00000000000000E+00   0.00000000000000E+00  -1.55046415880263E-09
      4.73476711877294E-34  -1.55046415880263E-09   4.63068960637679E-18   0.00000000000000E+00   0.00000000000000E+00
      0.00000000000000E+00   0.00000000000000E+00   0.00000000000000E+00   0.00000000000000E+00   0.00000000000000E+00
      1.77688410410989E-18   0.00000000000000E+00   0.00000000000000E+00   0.00000000000000E+00   0.00000000000000E+00
     -1.34640997438373E-19  -8.20645667262934E-34  -1.34640997438374E-19  -1.08064647006779E-17   6.49017598149636E-03
      6.49017565187266E-03   0.00000000000000E+00   0.00000000000000E+00   1.55046415893727E-09   3.47168955385639E-34
      1.55046415893727E-09   4.39889099019120E-18
      9.24440977492561E-03
      0.00000000000000E+00   3.81632516180254E-10   0.00000000000000E+00   0.00000000000000E+00  -1.79934402166846E-09
      4.45982195615018E-34  -1.79934402166846E-09   4.62993722527816E-18   0.00000000000000E+00   0.00000000000000E+00
      0.00000000000000E+00   0.00000000000000E+00   0.00000000000000E+00   0.00000000000000E+00   0.00000000000000E+00
      1.75826208678064E-18   0.00000000000000E+00   0.00000000000000E+00   0.00000000000000E+00   0.00000000000000E+00
      2.71729610229258E-19  -7.77761137909936E-34   2.71729610229257E-19  -1.08054244388760E-17   7.95019240643603E-03
      7.95019202388343E-03   0.00000000000000E+00   0.00000000000000E+00   1.79934402139673E-09   3.31778942294917E-34
      1.79934402139673E-09   4.41722512681717E-18
      1.11005546872520E-02
      0.00000000000000E+00   4.32264629239709E-10   0.00000000000000E+00   0.00000000000000E+00  -2.03797500993349E-09
      4.70248716157706E-34  -2.03797500993349E-09   4.62911494821790E-18   0.00000000000000E+00   0.00000000000000E+00
      0.00000000000000E+00   0.00000000000000E+00   0.00000000000000E+00   0.00000000000000E+00   0.00000000000000E+00
      1.73790927232235E-18   0.00000000000000E+00   0.00000000000000E+00   0.00000000000000E+00   0.00000000000000E+00
      1.79053413799463E-20  -7.86384960515314E-34   1.79053413799455E-20  -1.08043067427078E-17   9.54647703103672E-03
      9.54647659773067E-03   0.00000000000000E+00   0.00000000000000E+00   2.03797500991559E-09   3.16136244357608E-34
      2.03797500991559E-09   4.43728252216758E-18
      1.31299397913955E-02
      0.00000000000000E+00   4.80120322369031E-10   0.00000000000000E+00   0.00000000000000E+00  -2.26350854233506E-09
      4.65546729189250E-34  -2.26350854233506E-09   4.62821630457388E-18   0.00000000000000E+00   0.00000000000000E+00
      0.00000000000000E+00   0.00000000000000E+00   0.00000000000000E+00   0.00000000000000E+00   0.00000000000000E+00
      1.71566533757224E-18   0.00000000000000E+00   0.00000000000000E+00   0.00000000000000E+00   0.00000000000000E+00
      9.64118874151960E-20  -7.56365460501338E-34   9.64118874151952E-20  -1.08031078060251E-17   1.12917482206002E-02
      1.12917477393239E-02   0.00000000000000E+00   0.00000000000000E+00   2.26350854223865E-09   2.90818731312087E-34
      2.26350854223865E-09   4.45922616387898E-18
      1.53487341719258E-02
      0.00000000000000E+00   5.24640003842705E-10   0.00000000000000E+00   0.00000000000000E+00  -2.47332032869739E-09
      4.70267899038369E-34  -2.47332032869739E-09   4.62723422690865E-18   0.00000000000000E+00   0.00000000000000E+00
      0.00000000000000E+00   0.00000000000000E+00   0.00000000000000E+00   0.00000000000000E+00   0.00000000000000E+00
      1.69135517685582E-18   0.00000000000000E+00   0.00000000000000E+00   0.00000000000000E+00   0.00000000000000E+00
      1.23204383786893E-19  -7.47732691402049E-34   1.23204383786892E-19  -1.08018240161246E-17   1.31999113878562E-02
      1.31999108619538E-02   0.00000000000000E+00   0.00000000000000E+00   2.47332032857419E-09   2.77464792363680E-34
      2.47332032857419E-09   4.48323461236016E-18
      1.77746160279722E-02
      0.00000000000000E+00   5.65343056237021E-10   0.00000000000000E+00   0.00000000000000E+00  -2.66516239498934E-09
      4.74617586212316E-34  -2.66516239498934E-09   4.62616099581433E-18   0.00000000000000E+00   0.00000000000000E+00
      0.00000000000000E+00   0.00000000000000E+00   0.00000000000000E+00   0.00000000000000E+00   0.00000000000000E+00
      1.66478754280314E-18   0.00000000000000E+00   0.00000000000000E+00   0.00000000000000E+00   0.00000000000000E+00
      1.91330576642131E-19  -7.29292166231099E-34   1.91330576642130E-19  -1.08004520471503E-17   1.52861697840561E-02
      1.52861692173536E-02   0.00000000000000E+00   0.00000000000000E+00   2.66516239479801E-09   2.54674580018782E-34
      2.66516239479801E-09   4.50950350853279E-18
      2.04269135239163E-02
      0.00000000000000E+00   6.01863791984847E-10   0.00000000000000E+00   0.00000000000000E+00  -2.83733319972721E-09
      4.75009501295185E-34  -2.83733319972721E-09   4.62498817946478E-18   0.00000000000000E+00   0.00000000000000E+00
      0.00000000000000E+00   0.00000000000000E+00   0.00000000000000E+00   0.00000000000000E+00   0.00000000000000E+00
      1.63575355894601E-18   0.00000000000000E+00   0.00000000000000E+00   0.00000000000000E+00   0.00000000000000E+00
     -3.72738791590625E-19  -7.13809487337770E-34  -3.72738791590626E-19  -1.07989889662605E-17   1.75671456305680E-02
      1.75671450272580E-02   0.00000000000000E+00   0.00000000000000E+00   2.83733320009995E-09   2.38799986042584E-34
      2.83733320009995E-09   4.53824722784969E-18
      2.33267587861485E-02
      0.00000000000000E+00   6.33989133508985E-10   0.00000000000000E+00   0.00000000000000E+00  -2.98885451408987E-09
      4.57733486623265E-34  -2.98885451408987E-09   4.62370656740539E-18   0.00000000000000E+00   0.00000000000000E+00
      0.00000000000000E+00   0.00000000000000E+00   0.00000000000000E+00   0.00000000000000E+00   0.00000000000000E+00
      1.60402509330360E-18   0.00000000000000E+00   0.00000000000000E+00   0.00000000000000E+00   0.00000000000000E+00
      2.32329873915112E-19  -6.74827455132895E-34   2.32329873915112E-19  -1.07974323567166E-17   2.00610125560877E-02
      2.00610119205767E-02   0.00000000000000E+00   0.00000000000000E+00   2.98885451385755E-09   2.17093968509629E-34
      2.98885451385755E-09   4.56970069600763E-18
      2.64972562728556E-02
      0.00000000000000E+00   6.61695006422659E-10   0.00000000000000E+00   0.00000000000000E+00  -3.11964283494663E-09
      4.59922492440616E-34  -3.11964283494663E-09   4.62230609791804E-18   0.00000000000000E+00   0.00000000000000E+00
      0.00000000000000E+00   0.00000000000000E+00   0.00000000000000E+00   0.00000000000000E+00   0.00000000000000E+00
      1.56935297675149E-18   0.00000000000000E+00   0.00000000000000E+00   0.00000000000000E+00   0.00000000000000E+00
     -1.08962284456918E-19  -6.57164880366083E-34  -1.08962284456919E-19  -1.07957804543962E-17   2.27876403946559E-02
      2.27876397313749E-02   0.00000000000000E+00   0.00000000000000E+00   3.11964283505559E-09   1.97242387925467E-34
      3.11964283505559E-09   4.60412137972666E-18
      2.99636668583222E-02
      0.00000000000000E+00   6.85177322742990E-10   0.00000000000000E+00   0.00000000000000E+00  -3.23065436612593E-09
      4.52243912243896E-34  -3.23065436612593E-09   4.62077577833056E-18   0.00000000000000E+00   0.00000000000000E+00
      0.00000000000000E+00   0.00000000000000E+00   0.00000000000000E+00   0.00000000000000E+00   0.00000000000000E+00
      1.53146505062626E-18   0.00000000000000E+00   0.00000000000000E+00   0.00000000000000E+00   0.00000000000000E+00
      9.49775029744558E-20  -6.27698629617302E-34   9.49775029744552E-20  -1.07940322988721E-17   2.57687534981571E-02
      2.57687528113416E-02   0.00000000000000E+00   0.00000000000000E+00   3.23065436603095E-09   1.75454717373405E-34
      3.23065436603095E-09   4.64179146991528E-18
      3.37536090984323E-02
      0.00000000000000E+00   7.04870480966174E-10   0.00000000000000E+00   0.00000000000000E+00  -3.32397049099455E-09
      4.73377215483707E-34  -3.32397049099455E-09   4.61910359755275E-18   0.00000000000000E+00   0.00000000000000E+00
      0.00000000000000E+00   0.00000000000000E+00   0.00000000000000E+00   0.00000000000000E+00   0.00000000000000E+00
      1.49006402571876E-18   0.00000000000000E+00   0.00000000000000E+00   0.00000000000000E+00   0.00000000000000E+00
      9.23266131261305E-20  -6.27996022628227E-34   9.23266131261298E-20  -1.07921878973331E-17   2.90281038246517E-02
      2.90281031181028E-02   0.00000000000000E+00   0.00000000000000E+00   3.32397049090222E-09   1.54618807144519E-34
      3.32397049090222E-09   4.68302027406158E-18
      3.78972792809526E-02
      0.00000000000000E+00   7.21448465437919E-10   0.00000000000000E+00   0.00000000000000E+00  -3.40280038890356E-09
      4.69484929505443E-34  -3.40280038890356E-09   4.61727642997365E-18   0.00000000000000E+00   0.00000000000000E+00
      0.00000000000000E+00   0.00000000000000E+00   0.00000000000000E+00   0.00000000000000E+00   0.00000000000000E+00
      1.44482512711810E-18   0.00000000000000E+00   0.00000000000000E+00   0.00000000000000E+00   0.00000000000000E+00
      1.00397851386140E-19  -6.06621806576180E-34   1.00397851386139E-19  -1.07902483919741E-17   3.25916601816192E-02
      3.25916594584640E-02   0.00000000000000E+00   0.00000000000000E+00   3.40280038880316E-09   1.37136877070736E-34
      3.40280038880316E-09   4.72814683488234E-18
      4.24276920138415E-02
      0.00000000000000E+00   7.35797338854648E-10   0.00000000000000E+00   0.00000000000000E+00  -3.47135120654319E-09
      4.58721974993851E-34  -3.47135120654319E-09   4.61527993068011E-18   0.00000000000000E+00   0.00000000000000E+00
      0.00000000000000E+00   0.00000000000000E+00   0.00000000000000E+00   0.00000000000000E+00   0.00000000000000E+00
      1.39539351580468E-18   0.00000000000000E+00   0.00000000000000E+00   0.00000000000000E+00   0.00000000000000E+00
      1.71115810650443E-18  -5.79456953242925E-34   1.71115810650443E-18  -1.07882162446059E-17   3.64878151319037E-02
      3.64878143943834E-02   0.00000000000000E+00   0.00000000000000E+00   3.47135120483203E-09   1.20734978249074E-34
      3.47135120483203E-09   4.77754279812112E-18
      4.73809432684667E-02
      0.00000000000000E+00   7.48947474679479E-10   0.00000000000000E+00   0.00000000000000E+00  -3.53450973436396E-09
      4.55432072944082E-34  -3.53450973436396E-09   4.61309842219086E-18   0.00000000000000E+00   0.00000000000000E+00
      0.00000000000000E+00   0.00000000000000E+00   0.00000000000000E+00   0.00000000000000E+00   0.00000000000000E+00
      1.34138146464813E-18   0.00000000000000E+00   0.00000000000000E+00   0.00000000000000E+00   0.00000000000000E+00
      1.58720369227823E-18  -5.59882978583109E-34   1.58720369227823E-18  -1.07860954354069E-17   4.07476112108814E-02
      4.07476104602071E-02   0.00000000000000E+00   0.00000000000000E+00   3.53450973277675E-09   1.04450905639026E-34
      3.53450973277675E-09   4.83161554856786E-18
      5.27964979735236E-02
      0.00000000000000E+00   7.61936385367366E-10   0.00000000000000E+00   0.00000000000000E+00  -3.59718953970552E-09
      4.37470983456756E-34  -3.59718953970552E-09   4.61071477303253E-18   0.00000000000000E+00   0.00000000000000E+00
      0.00000000000000E+00   0.00000000000000E+00   0.00000000000000E+00   0.00000000000000E+00   0.00000000000000E+00
      1.28236527229260E-18   0.00000000000000E+00   0.00000000000000E+00   0.00000000000000E+00   0.00000000000000E+00
     -6.83625139957465E-19  -5.27593783931553E-34  -6.83625139957465E-19  -1.07838916817191E-17   4.54049882572303E-02
      4.54049874935758E-02   0.00000000000000E+00   0.00000000000000E+00   3.59718954038915E-09   9.01228004747975E-35
      3.59718954038915E-09   4.89081163639393E-18
      5.87175044510525E-02
      0.00000000000000E+00   7.75632240489422E-10   0.00000000000000E+00   0.00000000000000E+00  -3.66347777812467E-09
      4.71918246394401E-34  -3.66347777812467E-09   4.60811026583572E-18   0.00000000000000E+00   0.00000000000000E+00
      0.00000000000000E+00   0.00000000000000E+00   0.00000000000000E+00   0.00000000000000E+00   0.00000000000000E+00
      1.21788189614185E-18   0.00000000000000E+00   0.00000000000000E+00   0.00000000000000E+00   0.00000000000000E+00
      1.39883863371716E-19  -5.45094350718564E-34   1.39883863371716E-19  -1.07816126797259E-17   5.04970538279052E-02
      5.04970530505770E-02   0.00000000000000E+00   0.00000000000000E+00   3.66347777798478E-09   7.31761043241625E-35
      3.66347777798478E-09   4.95562051774836E-18
      6.51516648233006E-02
      0.00000000000000E+00   7.90572753912135E-10   0.00000000000000E+00   0.00000000000000E+00  -3.73588042344391E-09
      4.76088215144637E-34  -3.73588042344391E-09   4.60528179740460E-18   0.00000000000000E+00   0.00000000000000E+00
      0.00000000000000E+00   0.00000000000000E+00   0.00000000000000E+00   0.00000000000000E+00   0.00000000000000E+00
      1.14785473754162E-18   0.00000000000000E+00   0.00000000000000E+00   0.00000000000000E+00   0.00000000000000E+00
     -3.71817473847257E-20  -5.38555983832329E-34  -3.71817473847262E-20  -1.07792821909640E-17   5.60304317480385E-02
      5.60304309558039E-02   0.00000000000000E+00   0.00000000000000E+00   3.73588042348109E-09   6.24677686876913E-35
      3.73588042348109E-09   5.02614565601774E-18
      7.21434524278101E-02
      0.00000000000000E+00   8.07194184264268E-10   0.00000000000000E+00   0.00000000000000E+00  -3.81646873084007E-09
      4.74206959209409E-34  -3.81646873084007E-09   4.60221011368139E-18   0.00000000000000E+00   0.00000000000000E+00
      0.00000000000000E+00   0.00000000000000E+00   0.00000000000000E+00   0.00000000000000E+00   0.00000000000000E+00
      1.07180715440688E-18   0.00000000000000E+00   0.00000000000000E+00   0.00000000000000E+00   0.00000000000000E+00
     -1.54702288937599E-19  -5.21657559076161E-34  -1.54702288937599E-19  -1.07769122257150E-17   6.20433690879167E-02
      6.20433682791100E-02   0.00000000000000E+00   0.00000000000000E+00   3.81646873099477E-09   4.74505998667521E-35
      3.81646873099477E-09   5.10289495762674E-18
      7.97411949580438E-02
      0.00000000000000E+00   8.25761304984590E-10   0.00000000000000E+00   0.00000000000000E+00  -3.90653315288330E-09
      4.74062334948165E-34  -3.90653315288330E-09   4.59887432054161E-18   0.00000000000000E+00   0.00000000000000E+00
      0.00000000000000E+00   0.00000000000000E+00   0.00000000000000E+00   0.00000000000000E+00   0.00000000000000E+00
      9.89221469017948E-19   0.00000000000000E+00   0.00000000000000E+00   0.00000000000000E+00   0.00000000000000E+00
      1.42994400771383E-20  -5.12702866234813E-34   1.42994400771378E-20  -1.07745172805868E-17   6.85774276639177E-02
      6.85774268366112E-02   0.00000000000000E+00   0.00000000000000E+00   3.90653315286900E-09   3.86405312866480E-35
      3.90653315286900E-09   5.18642149102720E-18
      8.79974085075645E-02
      0.00000000000000E+00   8.46359099565813E-10   0.00000000000000E+00   0.00000000000000E+00  -4.00649230758062E-09
      4.58303401454382E-34  -4.00649230758062E-09   4.59525175446608E-18   0.00000000000000E+00   0.00000000000000E+00
      0.00000000000000E+00   0.00000000000000E+00   0.00000000000000E+00   0.00000000000000E+00   0.00000000000000E+00
      8.99535501287598E-19   0.00000000000000E+00   0.00000000000000E+00   0.00000000000000E+00   0.00000000000000E+00
      1.45493077308456E-19  -4.88779903890245E-34   1.45493077308455E-19  -1.07721146729884E-17   7.56777713165054E-02
      7.56777704686780E-02   0.00000000000000E+00   0.00000000000000E+00   4.00649230743512E-09   3.04765024358631E-35
      4.00649230743512E-09   5.27732741723470E-18
      9.69691605647102E-02
      0.00000000000000E+00   8.69057625071009E-10   0.00000000000000E+00   0.00000000000000E+00  -4.11670591811184E-09
      4.61937538591279E-34  -4.11670591811184E-09   4.59131781689088E-18   0.00000000000000E+00   0.00000000000000E+00
      0.00000000000000E+00   0.00000000000000E+00   0.00000000000000E+00   0.00000000000000E+00   0.00000000000000E+00
      8.02138663800458E-19   0.00000000000000E+00   0.00000000000000E+00   0.00000000000000E+00   0.00000000000000E+00
      1.52651750099424E-19  -4.84511387747182E-34   1.52651750099424E-19  -1.07697246960979E-17   8.33934780856508E-02
      8.33934772152051E-02   0.00000000000000E+00   0.00000000000000E+00   4.11670591795919E-09   2.25738491559029E-35
      4.11670591795919E-09   5.37626821540653E-18
      1.06718464466809E-01
      0.00000000000000E+00   8.94072647472422E-10   0.00000000000000E+00   0.00000000000000E+00  -4.23826255437682E-09
      4.69482927184900E-34  -4.23826255437682E-09   4.58704578849985E-18   0.00000000000000E+00   0.00000000000000E+00
      0.00000000000000E+00   0.00000000000000E+00   0.00000000000000E+00   0.00000000000000E+00   0.00000000000000E+00
      6.96367634058607E-19   0.00000000000000E+00   0.00000000000000E+00   0.00000000000000E+00   0.00000000000000E+00
     -1.84449833434200E-19  -4.86579368048410E-34  -1.84449833434200E-19  -1.07673706746264E-17   9.17778794414554E-02
      9.17778785460878E-02   0.00000000000000E+00   0.00000000000000E+00   4.23826255456127E-09   1.70964408635099E-35
      4.23826255456127E-09   5.48395725206794E-18
      1.16718464466809E-01
      0.00000000000000E+00   9.20195253223899E-10   0.00000000000000E+00   0.00000000000000E+00  -4.36531608260041E-09
      4.62984891477070E-34  -4.36531608260041E-09   4.58266678527919E-18   0.00000000000000E+00   0.00000000000000E+00
      0.00000000000000E+00   0.00000000000000E+00   0.00000000000000E+00   0.00000000000000E+00   0.00000000000000E+00
      5.87942871789178E-19   0.00000000000000E+00   0.00000000000000E+00   0.00000000000000E+00   0.00000000000000E+00
     -1.75103529630543E-19  -4.75817172146420E-34  -1.75103529630543E-19  -1.07652006952464E-17   1.00377879441455E-01
      1.00377878520080E-01   0.00000000000000E+00   0.00000000000000E+00   4.36531608277551E-09   1.28322806693498E-35
      4.36531608277551E-09   5.59459103817805E-18
      1.26718464466809E-01
      0.00000000000000E+00   9.46881723694296E-10   0.00000000000000E+00   0.00000000000000E+00  -4.49522329046579E-09
      4.73569695922231E-34  -4.49522329046579E-09   4.57829052297714E-18   0.00000000000000E+00   0.00000000000000E+00
      0.00000000000000E+00   0.00000000000000E+00   0.00000000000000E+00   0.00000000000000E+00   0.00000000000000E+00
      4.79579454435107E-19   0.00000000000000E+00   0.00000000000000E+00   0.00000000000000E+00   0.00000000000000E+00
     -7.93221363761873E-21  -4.82807372450428E-34  -7.93221363761921E-21  -1.07632610660327E-17   1.08977879441455E-01
      1.08977878493527E-01   0.00000000000000E+00   0.00000000000000E+00   4.49522329047372E-09   9.23767652819647E-36
      4.49522329047372E-09   5.70539108862043E-18
      1.36718464466809E-01
      0.00000000000000E+00   9.74197727317436E-10   0.00000000000000E+00   0.00000000000000E+00  -4.62829974087312E-09
      4.68852740325820E-34  -4.62829974087312E-09   4.57391685865157E-18   0.00000000000000E+00   0.00000000000000E+00
      0.00000000000000E+00   0.00000000000000E+00   0.00000000000000E+00   0.00000000000000E+00   0.00000000000000E+00
      3.71272559567712E-19   0.00000000000000E+00   0.00000000000000E+00   0.00000000000000E+00   0.00000000000000E+00
     -2.30590777985474E-19  -4.75579305092320E-34  -2.30590777985475E-19  -1.07615360723461E-17   1.17577879441455E-01
      1.17577878466348E-01   0.00000000000000E+00   0.00000000000000E+00   4.62829974110371E-09   6.72656476649973E-36
      4.62829974110371E-09   5.81634665412682E-18
      1.46718464466809E-01
      0.00000000000000E+00   1.00217525483251E-09   0.00000000000000E+00   0.00000000000000E+00  -4.76469900138427E-09
      4.57343565633989E-34  -4.76469900138427E-09   4.56954566499124E-18   0.00000000000000E+00   0.00000000000000E+00
      0.00000000000000E+00   0.00000000000000E+00   0.00000000000000E+00   0.00000000000000E+00   0.00000000000000E+00
      2.63017999776819E-19   0.00000000000000E+00   0.00000000000000E+00   0.00000000000000E+00   0.00000000000000E+00
      3.82358423358136E-20  -4.62540146640070E-34   3.82358423358132E-20  -1.07600114662426E-17   1.26177879441455E-01
      1.26177878438506E-01   0.00000000000000E+00   0.00000000000000E+00   4.76469900134604E-09   5.19658100608125E-36
      4.76469900134604E-09   5.92744780147446E-18
      1.56718464466809E-01
      0.00000000000000E+00   1.03082104742191E-09   0.00000000000000E+00   0.00000000000000E+00  -4.90445231782637E-09
      4.64512634928949E-34  -4.90445231782637E-09   4.56517682575235E-18   0.00000000000000E+00   0.00000000000000E+00
      0.00000000000000E+00   0.00000000000000E+00   0.00000000000000E+00   0.00000000000000E+00   0.00000000000000E+00
      1.54812077878606E-19   0.00000000000000E+00   0.00000000000000E+00   0.00000000000000E+00   0.00000000000000E+00
     -1.60871213541195E-20  -4.68284504842660E-34  -1.60871213541200E-20  -1.07586742308076E-17   1.34777879441455E-01
      1.34777878409994E-01   0.00000000000000E+00   0.00000000000000E+00   4.90445231784246E-09   3.77186991371049E-36
      4.90445231784246E-09   6.03868532717663E-18
      1.66718464466809E-01
      0.00000000000000E+00   1.06012968845927E-09   0.00000000000000E+00   0.00000000000000E+00  -5.04753333260926E-09
      4.59382072557176E-34  -5.04753333260926E-09   4.56081023412208E-18   0.00000000000000E+00   0.00000000000000E+00
      0.00000000000000E+00   0.00000000000000E+00   0.00000000000000E+00   0.00000000000000E+00   0.00000000000000E+00
      4.66514987425380E-20   0.00000000000000E+00   0.00000000000000E+00   0.00000000000000E+00   0.00000000000000E+00
      5.35168552027660E-20  -4.62180676578141E-34   5.35168552027655E-20  -1.07575124206392E-17   1.43377879441455E-01
      1.43377878380817E-01   0.00000000000000E+00   0.00000000000000E+00   5.04753333255575E-09   2.79860402096476E-36
      5.04753333255575E-09   6.15005068777461E-18
      1.76718464466809E-01
      0.00000000000000E+00   1.09009445944674E-09   0.00000000000000E+00   0.00000000000000E+00  -5.19391145228523E-09
      4.67656237633488E-34  -5.19391145228523E-09   4.55644579341057E-18   0.00000000000000E+00   0.00000000000000E+00
      0.00000000000000E+00   0.00000000000000E+00   0.00000000000000E+00   0.00000000000000E+00   0.00000000000000E+00
     -6.14666573716385E-20   0.00000000000000E+00   0.00000000000000E+00   0.00000000000000E+00   0.00000000000000E+00
     -3.74948432327355E-20  -4.69701665850207E-34  -3.74948432327360E-20  -1.07565150814052E-17   1.51977879441455E-01
      1.51977878350986E-01   0.00000000000000E+00   0.00000000000000E+00   5.19391145232272E-09   2.04542821671929E-36
      5.19391145232272E-09   6.26153594536628E-18
      1.86718464466809E-01
      0.00000000000000E+00   1.12071375974079E-09   0.00000000000000E+00   0.00000000000000E+00  -5.34358280748247E-09