DF-ISE text

Info {
  version   = 1.0
  type      = xyplot
  datasets  = [
    "time"
    "source OuterVoltage" "source InnerVoltage" "source QuasiFermiPotential" "source DisplacementCurrent" "source eCurrent"
    "source hCurrent" "source TotalCurrent" "source Charge" "gate OuterVoltage" "gate InnerVoltage"
    "gate QuasiFermiPotential" "gate DisplacementCurrent" "gate eCurrent" "gate hCurrent" "gate TotalCurrent"
    "gate Charge" "substrate OuterVoltage" "substrate InnerVoltage" "substrate QuasiFermiPotential" "substrate DisplacementCurrent"
    "substrate eCurrent" "substrate hCurrent" "substrate TotalCurrent" "substrate Charge" "drain OuterVoltage"
    "drain InnerVoltage" "drain QuasiFermiPotential" "drain DisplacementCurrent" "drain eCurrent" "drain hCurrent"
    "drain TotalCurrent" "drain Charge" ]
  functions = [
    Time
    OuterVoltage InnerVoltage QuasiFermiPotential DisplacementCurrent eCurrent
    hCurrent TotalCurrent Charge OuterVoltage InnerVoltage
    QuasiFermiPotential DisplacementCurrent eCurrent hCurrent TotalCurrent
    Charge OuterVoltage InnerVoltage QuasiFermiPotential DisplacementCurrent
    eCurrent hCurrent TotalCurrent Charge OuterVoltage
    InnerVoltage QuasiFermiPotential DisplacementCurrent eCurrent hCurrent
    TotalCurrent Charge ]
}

Data {
      0.00000000000000E+00
      0.00000000000000E+00   0.00000000000000E+00   0.00000000000000E+00   0.00000000000000E+00  -9.85950935094441E-21
      5.11465951226938E-34  -9.85950935094390E-21   4.85594661091941E-18   0.00000000000000E+00   0.00000000000000E+00
      0.00000000000000E+00   0.00000000000000E+00   0.00000000000000E+00   0.00000000000000E+00   0.00000000000000E+00
      1.94382870973566E-18   0.00000000000000E+00   0.00000000000000E+00   0.00000000000000E+00   0.00000000000000E+00
      1.32771456752577E-20  -9.63222057151486E-34   1.32771456752568E-20  -1.13322540125601E-17   0.00000000000000E+00
      0.00000000000000E+00   0.00000000000000E+00   0.00000000000000E+00  -3.41763632431330E-21   4.51756105924549E-34
     -3.41763632431285E-21   4.53247869190501E-18
      0.00000000000000E+00
      0.00000000000000E+00   8.58362029976885E-19   0.00000000000000E+00   0.00000000000000E+00  -7.24304791136701E-21
      4.77278307539781E-34  -7.24304791136654E-21   4.85435375984810E-18   0.00000000000000E+00   0.00000000000000E+00
      0.00000000000000E+00   0.00000000000000E+00   0.00000000000000E+00   0.00000000000000E+00   0.00000000000000E+00
      1.93897655583020E-18   0.00000000000000E+00   0.00000000000000E+00   0.00000000000000E+00   0.00000000000000E+00
      1.09773232774618E-19  -9.26929161777463E-34   1.09773232774618E-19  -1.13244854542874E-17   0.00000000000000E+00
      0.00000000000000E+00   0.00000000000000E+00   0.00000000000000E+00  -1.02530184863251E-19   4.49650854237682E-34
     -1.02530184863251E-19   4.53115513860911E-18
      1.00000000000000E-03
      0.00000000000000E+00   5.72361054764211E-11   0.00000000000000E+00   0.00000000000000E+00  -2.65306072671488E-10
      5.26281775999427E-34  -2.65306072671488E-10   4.85387264041057E-18   0.00000000000000E+00   0.00000000000000E+00
      0.00000000000000E+00   0.00000000000000E+00   0.00000000000000E+00   0.00000000000000E+00   0.00000000000000E+00
      1.92753619802003E-18   0.00000000000000E+00   0.00000000000000E+00   0.00000000000000E+00   0.00000000000000E+00
     -7.14967996527966E-20  -9.62418472820280E-34  -7.14967996527976E-20  -1.13237878474283E-17   8.60000000000000E-04
      8.59999942468394E-04   0.00000000000000E+00   0.00000000000000E+00   2.65306072742985E-10   4.36136696820853E-34
      2.65306072742985E-10   4.54237900899765E-18
      2.08666666666667E-03
      0.00000000000000E+00   1.15495146734826E-10   0.00000000000000E+00   0.00000000000000E+00  -5.35325766991256E-10
      4.94195303703337E-34  -5.35325766991256E-10   4.85334995749180E-18   0.00000000000000E+00   0.00000000000000E+00
      0.00000000000000E+00   0.00000000000000E+00   0.00000000000000E+00   0.00000000000000E+00   0.00000000000000E+00
      1.91510723974511E-18   0.00000000000000E+00   0.00000000000000E+00   0.00000000000000E+00   0.00000000000000E+00
      7.07360927515151E-20  -9.25055185045248E-34   7.07360927515142E-20  -1.13230374874948E-17   1.79453333333333E-03
      1.79453321724271E-03   0.00000000000000E+00   0.00000000000000E+00   5.35325766920520E-10   4.30859881341912E-34
      5.35325766920520E-10   4.55458029025790E-18
      3.27475555555556E-03
      0.00000000000000E+00   1.74577734859273E-10   0.00000000000000E+00   0.00000000000000E+00  -8.09124636082047E-10
      4.81467316905311E-34  -8.09124636082047E-10   4.85277864872465E-18   0.00000000000000E+00   0.00000000000000E+00
      0.00000000000000E+00   0.00000000000000E+00   0.00000000000000E+00   0.00000000000000E+00   0.00000000000000E+00
      1.90152165154166E-18   0.00000000000000E+00   0.00000000000000E+00   0.00000000000000E+00   0.00000000000000E+00
     -2.50980002942554E-19  -9.14322161622404E-34  -2.50980002942555E-19  -1.13222261814158E-17   2.81628977777778E-03
      2.81628960230111E-03   0.00000000000000E+00   0.00000000000000E+00   8.09124636333027E-10   4.32854844717093E-34
      8.09124636333027E-10   4.56792588114951E-18
      4.57373274074074E-03
      0.00000000000000E+00   2.33919837584777E-10   0.00000000000000E+00   0.00000000000000E+00  -1.08408311965428E-09
      5.12795040587443E-34  -1.08408311965428E-09   4.85215420411804E-18   0.00000000000000E+00   0.00000000000000E+00
      0.00000000000000E+00   0.00000000000000E+00   0.00000000000000E+00   0.00000000000000E+00   0.00000000000000E+00
      1.88667208649388E-18   0.00000000000000E+00   0.00000000000000E+00   0.00000000000000E+00   0.00000000000000E+00
     -4.15571509503003E-19  -9.08303415024429E-34  -4.15571509503003E-19  -1.13213498911802E-17   3.93341015703704E-03
      3.93340992191424E-03   0.00000000000000E+00   0.00000000000000E+00   1.08408312006985E-09   3.95508374436986E-34
      1.08408312006985E-09   4.58252360056823E-18
      5.99394779654321E-03
      0.00000000000000E+00   2.92919960293917E-10   0.00000000000000E+00   0.00000000000000E+00  -1.35741193793375E-09
      4.76084254354419E-34  -1.35741193793375E-09   4.85147169717629E-18   0.00000000000000E+00   0.00000000000000E+00
      0.00000000000000E+00   0.00000000000000E+00   0.00000000000000E+00   0.00000000000000E+00   0.00000000000000E+00
      1.87044127965899E-18   0.00000000000000E+00   0.00000000000000E+00   0.00000000000000E+00   0.00000000000000E+00
      2.24650956508086E-19  -8.81338716605389E-34   2.24650956508085E-19  -1.13204044882086E-17   5.15479510502716E-03
      5.15479481060270E-03   0.00000000000000E+00   0.00000000000000E+00   1.35741193770910E-09   4.05254462250970E-34
      1.35741193770910E-09   4.59849151137333E-18
      7.54671625755391E-03
      0.00000000000000E+00   3.50940651583838E-10   0.00000000000000E+00   0.00000000000000E+00  -1.62615951352182E-09
      5.34607791915307E-34  -1.62615951352182E-09   4.85072574666555E-18   0.00000000000000E+00   0.00000000000000E+00
      0.00000000000000E+00   0.00000000000000E+00   0.00000000000000E+00   0.00000000000000E+00   0.00000000000000E+00
      1.85270113712840E-18   0.00000000000000E+00   0.00000000000000E+00   0.00000000000000E+00   0.00000000000000E+00
      5.76084376303731E-20  -9.06163936830460E-34   5.76084376303722E-20  -1.13193857903285E-17   6.49017598149636E-03
      6.49017562875537E-03   0.00000000000000E+00   0.00000000000000E+00   1.62615951346421E-09   3.71556144915153E-34
      1.62615951346421E-09   4.61595890653450E-18
      9.24440977492561E-03
      0.00000000000000E+00   4.07320122913049E-10   0.00000000000000E+00   0.00000000000000E+00  -1.88726632615115E-09
      5.01114925368184E-34  -1.88726632615115E-09   4.84991047483985E-18   0.00000000000000E+00   0.00000000000000E+00
      0.00000000000000E+00   0.00000000000000E+00   0.00000000000000E+00   0.00000000000000E+00   0.00000000000000E+00
      1.83331174185100E-18   0.00000000000000E+00   0.00000000000000E+00   0.00000000000000E+00   0.00000000000000E+00
     -1.92155230020733E-19  -8.64899052855166E-34  -1.92155230020733E-19  -1.13182896086674E-17   7.95019240643603E-03
      7.95019199702881E-03   0.00000000000000E+00   0.00000000000000E+00   1.88726632634330E-09   3.63784127486982E-34
      1.88726632634330E-09   4.63506739197651E-18
      1.11005546872520E-02
      0.00000000000000E+00   4.61390984927811E-10   0.00000000000000E+00   0.00000000000000E+00  -2.13765284335812E-09
      4.54060003136995E-34  -2.13765284335812E-09   4.84901946174755E-18   0.00000000000000E+00   0.00000000000000E+00
      0.00000000000000E+00   0.00000000000000E+00   0.00000000000000E+00   0.00000000000000E+00   0.00000000000000E+00
      1.81212026756342E-18   0.00000000000000E+00   0.00000000000000E+00   0.00000000000000E+00   0.00000000000000E+00
     -9.46562460168577E-20  -7.75441609539926E-34  -9.46562460168585E-20  -1.13171118044234E-17   9.54647703103672E-03
      9.54647656728429E-03   0.00000000000000E+00   0.00000000000000E+00   2.13765284345277E-09   3.21381606402932E-34
      2.13765284345277E-09   4.65597207511243E-18
      1.31299397913955E-02
      0.00000000000000E+00   5.12504655844826E-10   0.00000000000000E+00   0.00000000000000E+00  -2.37433319218849E-09
      4.84594913978988E-34  -2.37433319218849E-09   4.84804569530539E-18   0.00000000000000E+00   0.00000000000000E+00
      0.00000000000000E+00   0.00000000000000E+00   0.00000000000000E+00   0.00000000000000E+00   0.00000000000000E+00
      1.78895979310904E-18   0.00000000000000E+00   0.00000000000000E+00   0.00000000000000E+00   0.00000000000000E+00
     -4.74219833591777E-20  -7.89821949501401E-34  -4.74219833591785E-20  -1.13158483583065E-17   1.12917482206002E-02
      1.12917477054753E-02   0.00000000000000E+00   0.00000000000000E+00   2.37433319223591E-09   3.05227035522413E-34
      2.37433319223591E-09   4.67884286989211E-18
      1.53487341719258E-02
      0.00000000000000E+00   5.60061172364535E-10   0.00000000000000E+00   0.00000000000000E+00  -2.59455383070596E-09
      5.15036598899364E-34  -2.59455383070596E-09   4.84698151671384E-18   0.00000000000000E+00   0.00000000000000E+00
      0.00000000000000E+00   0.00000000000000E+00   0.00000000000000E+00   0.00000000000000E+00   0.00000000000000E+00
      1.76364800745972E-18   0.00000000000000E+00   0.00000000000000E+00   0.00000000000000E+00   0.00000000000000E+00
     -2.46586944804645E-19  -7.90426760492756E-34  -2.46586944804646E-19  -1.13144954539550E-17   1.31999113878562E-02
      1.31999108249346E-02   0.00000000000000E+00   0.00000000000000E+00   2.59455383095255E-09   2.75390161593392E-34
      2.59455383095255E-09   4.70386592978145E-18
      1.77746160279722E-02
      0.00000000000000E+00   6.03544710408645E-10   0.00000000000000E+00   0.00000000000000E+00  -2.79595842039966E-09
      4.73705411603756E-34  -2.79595842039966E-09   4.84581856061421E-18   0.00000000000000E+00   0.00000000000000E+00
      0.00000000000000E+00   0.00000000000000E+00   0.00000000000000E+00   0.00000000000000E+00   0.00000000000000E+00
      1.73598579204706E-18   0.00000000000000E+00   0.00000000000000E+00   0.00000000000000E+00   0.00000000000000E+00
     -1.18556221990248E-19  -7.44605408351146E-34  -1.18556221990249E-19  -1.13130495722935E-17   1.52861697840561E-02
      1.52861691774320E-02   0.00000000000000E+00   0.00000000000000E+00   2.79595842051821E-09   2.70899996747391E-34
      2.79595842051821E-09   4.73124521963223E-18
      2.04269135239163E-02
      0.00000000000000E+00   6.42560383100349E-10   0.00000000000000E+00   0.00000000000000E+00  -2.97675895692028E-09
      4.60343677880299E-34  -2.97675895692028E-09   4.84454768973605E-18   0.00000000000000E+00   0.00000000000000E+00
      0.00000000000000E+00   0.00000000000000E+00   0.00000000000000E+00   0.00000000000000E+00   0.00000000000000E+00
      1.70575567535540E-18   0.00000000000000E+00   0.00000000000000E+00   0.00000000000000E+00   0.00000000000000E+00
     -1.51252105963566E-19  -7.02378543954017E-34  -1.51252105963566E-19  -1.13115076081117E-17   1.75671456305680E-02
      1.75671449847332E-02   0.00000000000000E+00   0.00000000000000E+00   2.97675895707153E-09   2.42034866073718E-34
      2.97675895707153E-09   4.76120424302024E-18
      2.33267587861485E-02
      0.00000000000000E+00   6.76876403507246E-10   0.00000000000000E+00   0.00000000000000E+00  -3.13592979823201E-09
      4.83863500602216E-34  -3.13592979823201E-09   4.84315892309408E-18   0.00000000000000E+00   0.00000000000000E+00
      0.00000000000000E+00   0.00000000000000E+00   0.00000000000000E+00   0.00000000000000E+00   0.00000000000000E+00
      1.67272013486974E-18   0.00000000000000E+00   0.00000000000000E+00   0.00000000000000E+00   0.00000000000000E+00
      3.36512758449882E-21  -7.12530419075029E-34   3.36512758449811E-21  -1.13098669929234E-17   2.00610125560877E-02
      2.00610118757667E-02   0.00000000000000E+00   0.00000000000000E+00   3.13592979822865E-09   2.28666918472813E-34
      3.13592979822865E-09   4.79398793495957E-18
      2.64972562728556E-02
      0.00000000000000E+00   7.06461159872495E-10   0.00000000000000E+00   0.00000000000000E+00  -3.27337977693877E-09
      5.05515116248642E-34  -3.27337977693877E-09   4.84164135739195E-18   0.00000000000000E+00   0.00000000000000E+00
      0.00000000000000E+00   0.00000000000000E+00   0.00000000000000E+00   0.00000000000000E+00   0.00000000000000E+00
      1.63661974449027E-18   0.00000000000000E+00   0.00000000000000E+00   0.00000000000000E+00   0.00000000000000E+00
     -1.46768483977375E-19  -7.13806731077668E-34  -1.46768483977376E-19  -1.13081258420058E-17   2.27876403946559E-02
      2.27876396846058E-02   0.00000000000000E+00   0.00000000000000E+00   3.27337977708554E-09   2.08291614829027E-34
      3.27337977708554E-09   4.82986474012360E-18
      2.99636668583222E-02
      0.00000000000000E+00   7.31517896874278E-10   0.00000000000000E+00   0.00000000000000E+00  -3.39011010169678E-09
      4.89929760387682E-34  -3.39011010169678E-09   4.83998308071024E-18   0.00000000000000E+00   0.00000000000000E+00
      0.00000000000000E+00   0.00000000000000E+00   0.00000000000000E+00   0.00000000000000E+00   0.00000000000000E+00
      1.59717113887412E-18   0.00000000000000E+00   0.00000000000000E+00   0.00000000000000E+00   0.00000000000000E+00
     -7.90334884942177E-19  -6.72528938784269E-34  -7.90334884942178E-19  -1.13062831098720E-17   2.57687534981571E-02
      2.57687527629318E-02   0.00000000000000E+00   0.00000000000000E+00   3.39011010248712E-09   1.82599178396587E-34
      3.39011010248712E-09   4.86912889028762E-18
      3.37536090984323E-02
      0.00000000000000E+00   7.52504903442383E-10   0.00000000000000E+00   0.00000000000000E+00  -3.48830551930655E-09
      4.99956510789889E-34  -3.48830551930655E-09   4.83817107782451E-18   0.00000000000000E+00   0.00000000000000E+00
      0.00000000000000E+00   0.00000000000000E+00   0.00000000000000E+00   0.00000000000000E+00   0.00000000000000E+00
      1.55406478306369E-18   0.00000000000000E+00   0.00000000000000E+00   0.00000000000000E+00   0.00000000000000E+00
     -8.24431247111573E-19  -6.68887343582620E-34  -8.24431247111574E-19  -1.13043387622148E-17   2.90281038246517E-02
      2.90281030683460E-02   0.00000000000000E+00   0.00000000000000E+00   3.48830552013098E-09   1.68930832792730E-34
      3.48830552013098E-09   4.91210290132661E-18
      3.78972792809526E-02
      0.00000000000000E+00   7.70135883570598E-10   0.00000000000000E+00   0.00000000000000E+00  -3.57133210677873E-09
      5.12837902646243E-34  -3.57133210677873E-09   4.83619112628311E-18   0.00000000000000E+00   0.00000000000000E+00
      0.00000000000000E+00   0.00000000000000E+00   0.00000000000000E+00   0.00000000000000E+00   0.00000000000000E+00
      1.50696252020076E-18   0.00000000000000E+00   0.00000000000000E+00   0.00000000000000E+00   0.00000000000000E+00
     -4.87692147578590E-19  -6.55546118439043E-34  -4.87692147578590E-19  -1.13022939523003E-17   3.25916601816192E-02
      3.25916594076135E-02   0.00000000000000E+00   0.00000000000000E+00   3.57133210726642E-09   1.42708215792800E-34
      3.57133210726642E-09   4.95914030581645E-18
      4.24276920138415E-02
      0.00000000000000E+00   7.85351880153076E-10   0.00000000000000E+00   0.00000000000000E+00  -3.64360626209203E-09
      4.64713475576422E-34  -3.64360626209203E-09   4.83402768299804E-18   0.00000000000000E+00   0.00000000000000E+00
      0.00000000000000E+00   0.00000000000000E+00   0.00000000000000E+00   0.00000000000000E+00   0.00000000000000E+00
      1.45549488362155E-18   0.00000000000000E+00   0.00000000000000E+00   0.00000000000000E+00   0.00000000000000E+00
     -1.80084328841806E-18  -5.99392917587491E-34  -1.80084328841806E-18  -1.13001512127606E-17   3.64878151319037E-02
      3.64878143426362E-02   0.00000000000000E+00   0.00000000000000E+00   3.64360626389287E-09   1.34679442011069E-34
      3.64360626389287E-09   5.01062864614105E-18
      4.73809432684667E-02
      0.00000000000000E+00   7.99247026668739E-10   0.00000000000000E+00   0.00000000000000E+00  -3.71025213206534E-09
      4.76190596145778E-34  -3.71025213206534E-09   4.83166376162036E-18   0.00000000000000E+00   0.00000000000000E+00
      0.00000000000000E+00   0.00000000000000E+00   0.00000000000000E+00   0.00000000000000E+00   0.00000000000000E+00
      1.39925815268320E-18   0.00000000000000E+00   0.00000000000000E+00   0.00000000000000E+00   0.00000000000000E+00
     -2.16230514200703E-18  -5.86996371379746E-34  -2.16230514200703E-18  -1.12979146612806E-17   4.07476112108814E-02
      4.07476104076959E-02   0.00000000000000E+00   0.00000000000000E+00   3.71025213422764E-09   1.10805775233968E-34
      3.71025213422764E-09   5.06699274697698E-18
      5.27964979735236E-02
      0.00000000000000E+00   8.12921431654601E-10   0.00000000000000E+00   0.00000000000000E+00  -3.77640695022671E-09
      4.76740609825100E-34  -3.77640695022671E-09   4.82908080099707E-18   0.00000000000000E+00   0.00000000000000E+00
      0.00000000000000E+00   0.00000000000000E+00   0.00000000000000E+00   0.00000000000000E+00   0.00000000000000E+00
      1.33781113417787E-18   0.00000000000000E+00   0.00000000000000E+00   0.00000000000000E+00   0.00000000000000E+00
     -1.12734403067102E-19  -5.70552569075679E-34  -1.12734403067102E-19  -1.12955902266469E-17   4.54049882572303E-02
      4.54049874403696E-02   0.00000000000000E+00   0.00000000000000E+00   3.77640695033944E-09   9.38119592505780E-35
      3.77640695033944E-09   5.12869829147190E-18
      5.86814007530188E-02
      0.00000000000000E+00   8.27212770615717E-10   0.00000000000000E+00   0.00000000000000E+00  -3.84592914144069E-09
      5.02552881966602E-34  -3.84592914144069E-09   4.82627572557718E-18   0.00000000000000E+00   0.00000000000000E+00
      0.00000000000000E+00   0.00000000000000E+00   0.00000000000000E+00   0.00000000000000E+00   0.00000000000000E+00
      1.27108090695732E-18   0.00000000000000E+00   0.00000000000000E+00   0.00000000000000E+00   0.00000000000000E+00
     -8.02635796176177E-20  -5.80180768112797E-34  -8.02635796176183E-20  -1.12932001369346E-17   5.04660046475962E-02
      5.04660038164646E-02   0.00000000000000E+00   0.00000000000000E+00   3.84592914152095E-09   7.76278861461948E-35
      3.84592914152095E-09   5.19584350440017E-18
      6.50763284400702E-02
      0.00000000000000E+00   8.42786960814942E-10   0.00000000000000E+00   0.00000000000000E+00  -3.92187924665374E-09
      4.97959981894449E-34  -3.92187924665374E-09   4.82322944104455E-18   0.00000000000000E+00   0.00000000000000E+00
      0.00000000000000E+00   0.00000000000000E+00   0.00000000000000E+00   0.00000000000000E+00   0.00000000000000E+00
      1.19861330220647E-18   0.00000000000000E+00   0.00000000000000E+00   0.00000000000000E+00   0.00000000000000E+00
     -1.98323417900901E-19  -5.61098044028451E-34  -1.98323417900902E-19  -1.12907544916387E-17   5.59656424584604E-02
      5.59656416117969E-02   0.00000000000000E+00   0.00000000000000E+00   3.92187924685206E-09   6.31380621340018E-35
      3.92187924685206E-09   5.26891174838768E-18
      7.20254831933328E-02
      0.00000000000000E+00   8.60117136553372E-10   0.00000000000000E+00   0.00000000000000E+00  -4.00649107997487E-09
      4.72017372550922E-34  -4.00649107997487E-09   4.81992121490934E-18   0.00000000000000E+00   0.00000000000000E+00
      0.00000000000000E+00   0.00000000000000E+00   0.00000000000000E+00   0.00000000000000E+00   0.00000000000000E+00
      1.11991494423332E-18   0.00000000000000E+00   0.00000000000000E+00   0.00000000000000E+00   0.00000000000000E+00
     -9.29623804407206E-20  -5.21935009922101E-34  -9.29623804407211E-20  -1.12882656011148E-17   6.19419155462662E-02
      6.19419146823423E-02   0.00000000000000E+00   0.00000000000000E+00   4.00649108006783E-09   4.99176373711788E-35
      4.00649108006783E-09   5.34842944197215E-18
      7.95768980252114E-02
      0.00000000000000E+00   8.79476492147736E-10   0.00000000000000E+00   0.00000000000000E+00  -4.10110038254671E-09
      5.10583195315200E-34  -4.10110038254671E-09   4.81632855172324E-18   0.00000000000000E+00   0.00000000000000E+00
      0.00000000000000E+00   0.00000000000000E+00   0.00000000000000E+00   0.00000000000000E+00   0.00000000000000E+00
      1.03444997846191E-18   0.00000000000000E+00   0.00000000000000E+00   0.00000000000000E+00   0.00000000000000E+00
      1.33364496846788E-19  -5.51940954464472E-34   1.33364496846787E-19  -1.12857483750528E-17   6.84361323016818E-02
      6.84361314184993E-02   0.00000000000000E+00   0.00000000000000E+00   4.10110038241334E-09   4.13577591492724E-35
      4.10110038241334E-09   5.43496984486764E-18
      8.77827688091861E-02
      0.00000000000000E+00   9.00945542814807E-10   0.00000000000000E+00   0.00000000000000E+00  -4.20611012875707E-09
      4.78076025456103E-34  -4.20611012875707E-09   4.81242705054062E-18   0.00000000000000E+00   0.00000000000000E+00
      0.00000000000000E+00   0.00000000000000E+00   0.00000000000000E+00   0.00000000000000E+00   0.00000000000000E+00
      9.41636426638523E-19   0.00000000000000E+00   0.00000000000000E+00   0.00000000000000E+00   0.00000000000000E+00
      1.37729628701777E-19  -5.09401485506823E-34   1.37729628701776E-19  -1.12832206065731E-17   7.54931811759001E-02
      7.54931802713705E-02   0.00000000000000E+00   0.00000000000000E+00   4.20611012861934E-09   3.13254600507196E-35
      4.20611012861934E-09   5.52915712939398E-18
      9.66998150611054E-02
      0.00000000000000E+00   9.24606396891287E-10   0.00000000000000E+00   0.00000000000000E+00  -4.32196411098998E-09
      4.92753426989541E-34  -4.32196411098998E-09   4.80819022405903E-18   0.00000000000000E+00   0.00000000000000E+00
      0.00000000000000E+00   0.00000000000000E+00   0.00000000000000E+00   0.00000000000000E+00   0.00000000000000E+00
      8.40842115546585E-19   0.00000000000000E+00   0.00000000000000E+00   0.00000000000000E+00   0.00000000000000E+00
     -2.23967362001535E-19  -5.16067017628760E-34  -2.23967362001536E-19  -1.12807031121255E-17   8.31618409525506E-02
      8.31618400244944E-02   0.00000000000000E+00   0.00000000000000E+00   4.32196411121395E-09   2.33135906392192E-35
      4.32196411121395E-09   5.63167077251989E-18
      1.06389671988191E-01
      0.00000000000000E+00   9.50689466213608E-10   0.00000000000000E+00   0.00000000000000E+00  -4.44987199394209E-09
      5.06242254865486E-34  -4.44987199394209E-09   4.80358930165949E-18   0.00000000000000E+00   0.00000000000000E+00
      0.00000000000000E+00   0.00000000000000E+00   0.00000000000000E+00   0.00000000000000E+00   0.00000000000000E+00
      7.31380203393606E-19   0.00000000000000E+00   0.00000000000000E+00   0.00000000000000E+00   0.00000000000000E+00
      6.25116776353084E-20  -5.24423674816053E-34   6.25116776353079E-20  -1.12782198033972E-17   9.14951179098442E-02
      9.14951169558600E-02   0.00000000000000E+00   0.00000000000000E+00   4.44987199387958E-09   1.81814199505666E-35
      4.44987199387958E-09   5.74325029834406E-18
      1.16389671988191E-01
      0.00000000000000E+00   9.78092332392532E-10   0.00000000000000E+00   0.00000000000000E+00  -4.58448612179227E-09
      4.96469605383686E-34  -4.58448612179227E-09   4.79884427965554E-18   0.00000000000000E+00   0.00000000000000E+00
      0.00000000000000E+00   0.00000000000000E+00   0.00000000000000E+00   0.00000000000000E+00   0.00000000000000E+00
      6.18482288538955E-19   0.00000000000000E+00   0.00000000000000E+00   0.00000000000000E+00   0.00000000000000E+00
     -9.73788453981907E-20  -5.10085811807227E-34  -9.73788453981912E-20  -1.12759132523660E-17   1.00095117909844E-01
      1.00095116928641E-01   0.00000000000000E+00   0.00000000000000E+00   4.58448612188964E-09   1.36162064235410E-35
      4.58448612188964E-09   5.85858668417155E-18
      1.26389671988191E-01
      0.00000000000000E+00   1.00607634915040E-09   0.00000000000000E+00   0.00000000000000E+00  -4.72218964070581E-09
      4.65087832528496E-34  -4.72218964070581E-09   4.79410228952773E-18   0.00000000000000E+00   0.00000000000000E+00
      0.00000000000000E+00   0.00000000000000E+00   0.00000000000000E+00   0.00000000000000E+00   0.00000000000000E+00
      5.05647101940425E-19   0.00000000000000E+00   0.00000000000000E+00   0.00000000000000E+00   0.00000000000000E+00
      1.43957751042075E-19  -4.75294063899526E-34   1.43957751042075E-19  -1.12738487887435E-17   1.08695117909844E-01
      1.08695116900858E-01   0.00000000000000E+00   0.00000000000000E+00   4.72218964056186E-09   1.02062313710308E-35
      4.72218964056186E-09   5.97409939727537E-18
      1.36389671988191E-01
      0.00000000000000E+00   1.03470759577138E-09   0.00000000000000E+00   0.00000000000000E+00  -4.86330568622681E-09
      4.67556612805100E-34  -4.86330568622681E-09   4.78936318061175E-18   0.00000000000000E+00   0.00000000000000E+00
      0.00000000000000E+00   0.00000000000000E+00   0.00000000000000E+00   0.00000000000000E+00   0.00000000000000E+00
      3.92869544172644E-19   0.00000000000000E+00   0.00000000000000E+00   0.00000000000000E+00   0.00000000000000E+00
      1.57130837441290E-20  -4.74789535431545E-34   1.57130837441285E-20  -1.12720098805083E-17   1.17295117909844E-01
      1.17295116872428E-01   0.00000000000000E+00   0.00000000000000E+00   4.86330568621110E-09   7.23292262644500E-36
      4.86330568621110E-09   6.08977715572392E-18
      1.46389671988191E-01
      0.00000000000000E+00   1.06402092003714E-09   0.00000000000000E+00   0.00000000000000E+00  -5.00800483514537E-09
      4.93216548697433E-34  -5.00800483514537E-09   4.78462681608985E-18   0.00000000000000E+00   0.00000000000000E+00
      0.00000000000000E+00   0.00000000000000E+00   0.00000000000000E+00   0.00000000000000E+00   0.00000000000000E+00
      2.80145108973719E-19   0.00000000000000E+00   0.00000000000000E+00   0.00000000000000E+00   0.00000000000000E+00
      4.34669537352352E-20  -4.98721371152006E-34   4.34669537352347E-20  -1.12703814532483E-17   1.25895117909844E-01
      1.25895116843312E-01   0.00000000000000E+00   0.00000000000000E+00   5.00800483510190E-09   5.50482245457262E-36
      5.00800483510190E-09   6.20560952818474E-18
      1.56389671988191E-01
      0.00000000000000E+00   1.09402680855663E-09   0.00000000000000E+00   0.00000000000000E+00  -5.15633794876025E-09
      4.55974876962406E-34  -5.15633794876025E-09   4.77989306939579E-18   0.00000000000000E+00   0.00000000000000E+00
      0.00000000000000E+00   0.00000000000000E+00   0.00000000000000E+00   0.00000000000000E+00   0.00000000000000E+00
      1.67469789959562E-19   0.00000000000000E+00   0.00000000000000E+00   0.00000000000000E+00   0.00000000000000E+00
      2.36045471996882E-20  -4.60006101954890E-34   2.36045471996878E-20  -1.12689497109124E-17   1.34495117909844E-01
      1.34495116813502E-01   0.00000000000000E+00   0.00000000000000E+00   5.15633794873665E-09   4.03122499248408E-36
      5.15633794873665E-09   6.32158685155703E-18
      1.66389671988191E-01
      0.00000000000000E+00   1.12472306392303E-09   0.00000000000000E+00   0.00000000000000E+00  -5.30829655126895E-09
      5.00097200315880E-34  -5.30829655126895E-09   4.77516182403916E-18   0.00000000000000E+00   0.00000000000000E+00
      0.00000000000000E+00   0.00000000000000E+00   0.00000000000000E+00   0.00000000000000E+00   0.00000000000000E+00
      5.48400213743136E-20   0.00000000000000E+00   0.00000000000000E+00   0.00000000000000E+00   0.00000000000000E+00
     -3.83673916711531E-20  -5.03044293390801E-34  -3.83673916711536E-20  -1.12677020065773E-17   1.43095117909844E-01
      1.43095116783006E-01   0.00000000000000E+00   0.00000000000000E+00   5.30829655130731E-09   2.94709307492167E-36
      5.30829655130731E-09   6.43770016116385E-18
      1.76389671988191E-01
      0.00000000000000E+00   1.15610431708185E-09   0.00000000000000E+00   0.00000000000000E+00  -5.46386065937382E-09
      4.96322952267804E-34  -5.46386065937382E-09   4.77043297664041E-18   0.00000000000000E+00   0.00000000000000E+00
      0.00000000000000E+00   0.00000000000000E+00   0.00000000000000E+00   0.00000000000000E+00   0.00000000000000E+00
     -5.77473300248846E-20   0.00000000000000E+00   0.00000000000000E+00   0.00000000000000E+00   0.00000000000000E+00
     -3.04087393961412E-19  -4.98621219962400E-34  -3.04087393961412E-19  -1.12666267846878E-17   1.51695117909844E-01
      1.51695116751835E-01   0.00000000000000E+00   0.00000000000000E+00   5.46386065967791E-09   2.29826769459536E-36
      5.46386065967791E-09   6.55394113807223E-18
      1.86389671988191E-01
      0.00000000000000E+00   1.18817021267121E-09   0.00000000000000E+00   0.00000000000000E+00  -5.62303714687316E-09