DF-ISE text

Info {
  version   = 1.0
  type      = xyplot
  datasets  = [
    "time"
    "source OuterVoltage" "source InnerVoltage" "source QuasiFermiPotential" "source DisplacementCurrent" "source eCurrent"
    "source hCurrent" "source TotalCurrent" "source Charge" "gate OuterVoltage" "gate InnerVoltage"
    "gate QuasiFermiPotential" "gate DisplacementCurrent" "gate eCurrent" "gate hCurrent" "gate TotalCurrent"
    "gate Charge" "substrate OuterVoltage" "substrate InnerVoltage" "substrate QuasiFermiPotential" "substrate DisplacementCurrent"
    "substrate eCurrent" "substrate hCurrent" "substrate TotalCurrent" "substrate Charge" "drain OuterVoltage"
    "drain InnerVoltage" "drain QuasiFermiPotential" "drain DisplacementCurrent" "drain eCurrent" "drain hCurrent"
    "drain TotalCurrent" "drain Charge" ]
  functions = [
    Time
    OuterVoltage InnerVoltage QuasiFermiPotential DisplacementCurrent eCurrent
    hCurrent TotalCurrent Charge OuterVoltage InnerVoltage
    QuasiFermiPotential DisplacementCurrent eCurrent hCurrent TotalCurrent
    Charge OuterVoltage InnerVoltage QuasiFermiPotential DisplacementCurrent
    eCurrent hCurrent TotalCurrent Charge OuterVoltage
    InnerVoltage QuasiFermiPotential DisplacementCurrent eCurrent hCurrent
    TotalCurrent Charge ]
}

Data {
      0.00000000000000E+00
      0.00000000000000E+00   0.00000000000000E+00   0.00000000000000E+00   0.00000000000000E+00  -6.33440693166445E-21
      4.70732342300173E-34  -6.33440693166398E-21   4.89760637211911E-18   0.00000000000000E+00   0.00000000000000E+00
      0.00000000000000E+00   0.00000000000000E+00   0.00000000000000E+00   0.00000000000000E+00   0.00000000000000E+00
      4.17396387700056E-18   0.00000000000000E+00   0.00000000000000E+00   0.00000000000000E+00   0.00000000000000E+00
      3.25506744672051E-21  -9.51727933687432E-34   3.25506744671956E-21  -1.31958088100527E-17   0.00000000000000E+00
      0.00000000000000E+00   0.00000000000000E+00   0.00000000000000E+00   3.07933948494393E-21   4.80995591387259E-34
      3.07933948494441E-21   4.12423856093299E-18
      0.00000000000000E+00
      0.00000000000000E+00   0.00000000000000E+00   0.00000000000000E+00   0.00000000000000E+00  -1.70140776149968E-19
      4.63631210284112E-34  -1.70140776149968E-19   4.89601125991348E-18   0.00000000000000E+00   0.00000000000000E+00
      0.00000000000000E+00   0.00000000000000E+00   0.00000000000000E+00   0.00000000000000E+00   0.00000000000000E+00
      4.16763428996947E-18   0.00000000000000E+00   0.00000000000000E+00   0.00000000000000E+00   0.00000000000000E+00
      1.76324193591081E-19  -9.44631244000312E-34   1.76324193591080E-19  -1.31866077837759E-17   0.00000000000000E+00
      0.00000000000000E+00   0.00000000000000E+00   0.00000000000000E+00  -6.18341744111312E-21   4.81000033716201E-34
     -6.18341744111264E-21   4.12296223389297E-18
      1.00000000000000E-03
      0.00000000000000E+00   1.96856950083644E-11   0.00000000000000E+00   0.00000000000000E+00  -9.05798740977116E-11
      4.72518063722253E-34  -9.05798740977116E-11   4.89580909996213E-18   0.00000000000000E+00   0.00000000000000E+00
      0.00000000000000E+00   0.00000000000000E+00   0.00000000000000E+00   0.00000000000000E+00   0.00000000000000E+00
      4.15722823870753E-18   0.00000000000000E+00   0.00000000000000E+00   0.00000000000000E+00   0.00000000000000E+00
     -5.83609712119917E-18  -9.40068005923861E-34  -5.83609712119918E-18  -1.31861366267102E-17   8.60000000000000E-04
      8.59999980263890E-04   0.00000000000000E+00   0.00000000000000E+00   9.05798799338086E-11   4.67549942201609E-34
      9.05798799338086E-11   4.13309928804055E-18
      2.08666666666667E-03
      0.00000000000000E+00   3.98636003487443E-11   0.00000000000000E+00   0.00000000000000E+00  -1.83416335721242E-10
      4.79172055688354E-34  -1.83416335721242E-10   4.89558946371476E-18   0.00000000000000E+00   0.00000000000000E+00
      0.00000000000000E+00   0.00000000000000E+00   0.00000000000000E+00   0.00000000000000E+00   0.00000000000000E+00
      4.14592294390363E-18   0.00000000000000E+00   0.00000000000000E+00   0.00000000000000E+00   0.00000000000000E+00
      1.10394851867692E-15  -9.12061142613616E-34   1.10394851867692E-15  -1.31856312959236E-17   1.79453333333333E-03
      1.79453329336770E-03   0.00000000000000E+00   0.00000000000000E+00   1.83415231772723E-10   4.32889086925262E-34
      1.83415231772723E-10   4.14411888830517E-18
      3.28200000000000E-03
      0.00000000000000E+00   6.06222626470309E-11   0.00000000000000E+00   0.00000000000000E+00  -2.78913912922428E-10
      4.71702998109940E-34  -2.78913912922428E-10   4.89534791641815E-18   0.00000000000000E+00   0.00000000000000E+00
      0.00000000000000E+00   0.00000000000000E+00   0.00000000000000E+00   0.00000000000000E+00   0.00000000000000E+00
      4.13349021622422E-18   0.00000000000000E+00   0.00000000000000E+00   0.00000000000000E+00   0.00000000000000E+00
      1.56225062608455E-15  -8.96939775442568E-34   1.56225062608455E-15  -1.31850833484707E-17   2.82252000000000E-03
      2.82251993922275E-03   0.00000000000000E+00   0.00000000000000E+00   2.78912350671802E-10   4.25236777332627E-34
      2.78912350671802E-10   4.15624521582826E-18
      4.59686666666667E-03
      0.00000000000000E+00   8.17895056645715E-11   0.00000000000000E+00   0.00000000000000E+00  -3.76277976919974E-10
      4.91326136253394E-34  -3.76277976919974E-10   4.89508227693425E-18   0.00000000000000E+00   0.00000000000000E+00
      0.00000000000000E+00   0.00000000000000E+00   0.00000000000000E+00   0.00000000000000E+00   0.00000000000000E+00
      4.11981790009772E-18   0.00000000000000E+00   0.00000000000000E+00   0.00000000000000E+00   0.00000000000000E+00
      1.59068690189380E-20  -9.21612654680838E-34   1.59068690189371E-20  -1.31844900611110E-17   3.95330533333333E-03
      3.95330525133502E-03   0.00000000000000E+00   0.00000000000000E+00   3.76277976904067E-10   4.30286518427443E-34
      3.76277976904067E-10   4.16958988407892E-18
      6.03445422222222E-03
      0.00000000000000E+00   1.03044599833096E-10   0.00000000000000E+00   0.00000000000000E+00  -4.74031761650683E-10
      4.63852248042376E-34  -4.74031761650683E-10   4.89479191789629E-18   0.00000000000000E+00   0.00000000000000E+00
      0.00000000000000E+00   0.00000000000000E+00   0.00000000000000E+00   0.00000000000000E+00   0.00000000000000E+00
      4.10487383744863E-18   0.00000000000000E+00   0.00000000000000E+00   0.00000000000000E+00   0.00000000000000E+00
     -7.74998966310616E-20  -8.76413376309625E-34  -7.74998966310625E-20  -1.31838525747531E-17   5.18963063111111E-03
      5.18963052780360E-03   0.00000000000000E+00   0.00000000000000E+00   4.74031761728183E-10   4.12561128267249E-34
      4.74031761728183E-10   4.18418681940817E-18
      7.60621661629630E-03
      0.00000000000000E+00   1.24178096549091E-10   0.00000000000000E+00   0.00000000000000E+00  -5.71210505063805E-10
      4.98799280342668E-34  -5.71210505063805E-10   4.89447454445147E-18   0.00000000000000E+00   0.00000000000000E+00
      0.00000000000000E+00   0.00000000000000E+00   0.00000000000000E+00   0.00000000000000E+00   0.00000000000000E+00
      4.08854007592739E-18   0.00000000000000E+00   0.00000000000000E+00   0.00000000000000E+00   0.00000000000000E+00
     -1.99151648518246E-19  -8.92572056841796E-34  -1.99151648518247E-19  -1.31831687411979E-17   6.54134629001482E-03
      6.54134616551998E-03   0.00000000000000E+00   0.00000000000000E+00   5.71210505262956E-10   3.93772776499127E-34
      5.71210505262956E-10   4.20015412081900E-18
      9.32467683381729E-03
      0.00000000000000E+00   1.44963697019457E-10   0.00000000000000E+00   0.00000000000000E+00  -6.66772746252338E-10
      4.90817791771588E-34  -6.66772746252338E-10   4.89412764930594E-18   0.00000000000000E+00   0.00000000000000E+00
      0.00000000000000E+00   0.00000000000000E+00   0.00000000000000E+00   0.00000000000000E+00   0.00000000000000E+00
      4.07068777075138E-18   0.00000000000000E+00   0.00000000000000E+00   0.00000000000000E+00   0.00000000000000E+00
      2.43279026808215E-19  -8.52113452182734E-34   2.43279026808214E-19  -1.31824365394230E-17   8.01922207708287E-03
      8.01922193174939E-03   0.00000000000000E+00   0.00000000000000E+00   6.66772746009059E-10   3.61295660411146E-34
      6.66772746009059E-10   4.21762111936566E-18
      1.12035266716402E-02
      0.00000000000000E+00   1.65162559005085E-10   0.00000000000000E+00   0.00000000000000E+00  -7.59620362189112E-10
      4.73334243390813E-34  -7.59620362189112E-10   4.89374849306953E-18   0.00000000000000E+00   0.00000000000000E+00
      0.00000000000000E+00   0.00000000000000E+00   0.00000000000000E+00   0.00000000000000E+00   0.00000000000000E+00
      4.05117618330329E-18   0.00000000000000E+00   0.00000000000000E+00   0.00000000000000E+00   0.00000000000000E+00
     -1.39987077542634E-19  -8.26991480326714E-34  -1.39987077542635E-19  -1.31816541357326E-17   9.63503293761060E-03
      9.63503277202657E-03   0.00000000000000E+00   0.00000000000000E+00   7.59620362329099E-10   3.53657236935899E-34
      7.59620362329099E-10   4.23672945935972E-18
      1.32577358276600E-02
      0.00000000000000E+00   1.84529899129589E-10   0.00000000000000E+00   0.00000000000000E+00  -8.48629146122589E-10
      4.51822482003207E-34  -8.48629146122589E-10   4.89333408275676E-18   0.00000000000000E+00   0.00000000000000E+00
      0.00000000000000E+00   0.00000000000000E+00   0.00000000000000E+00   0.00000000000000E+00   0.00000000000000E+00
      4.02985158720844E-18   0.00000000000000E+00   0.00000000000000E+00   0.00000000000000E+00   0.00000000000000E+00
      2.11161883626029E-20  -7.80191597043717E-34   2.11161883626021E-20  -1.31808199546312E-17   1.14016528117876E-02
      1.14016526267864E-02   0.00000000000000E+00   0.00000000000000E+00   8.48629146101473E-10   3.28369115040509E-34
      8.48629146101473E-10   4.25763428466592E-18
      1.55036711715749E-02
      0.00000000000000E+00   2.02823787289534E-10   0.00000000000000E+00   0.00000000000000E+00  -9.32689365385943E-10
      4.80380702542824E-34  -9.32689365385943E-10   4.89288114825931E-18   0.00000000000000E+00   0.00000000000000E+00
      0.00000000000000E+00   0.00000000000000E+00   0.00000000000000E+00   0.00000000000000E+00   0.00000000000000E+00
      4.00654607308392E-18   0.00000000000000E+00   0.00000000000000E+00   0.00000000000000E+00   0.00000000000000E+00
     -9.72388666073355E-20  -7.88404742474623E-34  -9.72388666073363E-20  -1.31799327616111E-17   1.33331572075544E-02
      1.33331570042118E-02   0.00000000000000E+00   0.00000000000000E+00   9.32689365483182E-10   3.08024039931799E-34
      9.32689365483182E-10   4.28050554026788E-18
      1.79592271475886E-02
      0.00000000000000E+00   2.19816028595949E-10   0.00000000000000E+00   0.00000000000000E+00  -1.01075608355090E-09
      4.71272227310214E-34  -1.01075608355090E-09   4.89238611658929E-18   0.00000000000000E+00   0.00000000000000E+00
      0.00000000000000E+00   0.00000000000000E+00   0.00000000000000E+00   0.00000000000000E+00   0.00000000000000E+00
      3.98107624179723E-18   0.00000000000000E+00   0.00000000000000E+00   0.00000000000000E+00   0.00000000000000E+00
     -1.37559137170646E-19  -7.50182308133994E-34  -1.37559137170646E-19  -1.31789917582847E-17   1.54449353469262E-02
      1.54449351265465E-02   0.00000000000000E+00   0.00000000000000E+00   1.01075608368845E-09   2.78910080823779E-34
      1.01075608368845E-09   4.30552939989816E-18
      2.06439683480302E-02
      0.00000000000000E+00   2.35305128974157E-10   0.00000000000000E+00   0.00000000000000E+00  -1.08190892824074E-09
      4.70210826888889E-34  -1.08190892824074E-09   4.89184508365938E-18   0.00000000000000E+00   0.00000000000000E+00
      0.00000000000000E+00   0.00000000000000E+00   0.00000000000000E+00   0.00000000000000E+00   0.00000000000000E+00
      3.95324177490224E-18   0.00000000000000E+00   0.00000000000000E+00   0.00000000000000E+00   0.00000000000000E+00
      7.61398441238592E-20  -7.38747446486589E-34   7.61398441238585E-20  -1.31779966900649E-17   1.77538127793060E-02
      1.77538125433958E-02   0.00000000000000E+00   0.00000000000000E+00   1.08190892816460E-09   2.68536619597699E-34
      1.08190892816460E-09   4.33290983150323E-18
      2.35792853938464E-02
      0.00000000000000E+00   2.49130241178513E-10   0.00000000000000E+00   0.00000000000000E+00  -1.14541629700971E-09
      4.50931696712536E-34  -1.14541629700971E-09   4.89125378340307E-18   0.00000000000000E+00   0.00000000000000E+00
      0.00000000000000E+00   0.00000000000000E+00   0.00000000000000E+00   0.00000000000000E+00   0.00000000000000E+00
      3.92282387308040E-18   0.00000000000000E+00   0.00000000000000E+00   0.00000000000000E+00   0.00000000000000E+00
      5.03079094130532E-21  -6.90931942830456E-34   5.03079094130463E-21  -1.31769479710233E-17   2.02781854387079E-02
      2.02781851889346E-02   0.00000000000000E+00   0.00000000000000E+00   1.14541629700468E-09   2.40000246117919E-34
      1.14541629700468E-09   4.36287031453984E-18
      2.67885653639387E-02
      0.00000000000000E+00   2.61186391653922E-10   0.00000000000000E+00   0.00000000000000E+00  -1.20080546662958E-09
      4.91653489370783E-34  -1.20080546662958E-09   4.89060755388652E-18   0.00000000000000E+00   0.00000000000000E+00
      0.00000000000000E+00   0.00000000000000E+00   0.00000000000000E+00   0.00000000000000E+00   0.00000000000000E+00
      3.88958354426054E-18   0.00000000000000E+00   0.00000000000000E+00   0.00000000000000E+00   0.00000000000000E+00
     -4.63191372756503E-19  -7.12610503240656E-34  -4.63191372756504E-19  -1.31758468189816E-17   2.30381662129873E-02
      2.30381659511238E-02   0.00000000000000E+00   0.00000000000000E+00   1.20080546709277E-09   2.20957013869874E-34
      1.20080546709277E-09   4.39565572083447E-18
      3.02973781312396E-02
      0.00000000000000E+00   2.71439249280241E-10   0.00000000000000E+00   0.00000000000000E+00  -1.24792993838944E-09
      4.77529321819584E-34  -1.24792993838944E-09   4.88990130020438E-18   0.00000000000000E+00   0.00000000000000E+00
      0.00000000000000E+00   0.00000000000000E+00   0.00000000000000E+00   0.00000000000000E+00   0.00000000000000E+00
      3.85325973142390E-18   0.00000000000000E+00   0.00000000000000E+00   0.00000000000000E+00   0.00000000000000E+00
     -1.61149079498118E-19  -6.74736071311440E-34  -1.61149079498119E-19  -1.31746954080487E-17   2.60557451928661E-02
      2.60557449207200E-02   0.00000000000000E+00   0.00000000000000E+00   1.24792993855059E-09   1.97206749491856E-34
      1.24792993855059E-09   4.43153437642042E-18
      3.41336800901553E-02
      0.00000000000000E+00   2.79938562921271E-10   0.00000000000000E+00   0.00000000000000E+00  -1.28703099416372E-09
      4.85451093501850E-34  -1.28703099416372E-09   4.88912945374890E-18   0.00000000000000E+00   0.00000000000000E+00
      0.00000000000000E+00   0.00000000000000E+00   0.00000000000000E+00   0.00000000000000E+00   0.00000000000000E+00
      3.81356725527305E-18   0.00000000000000E+00   0.00000000000000E+00   0.00000000000000E+00   0.00000000000000E+00
     -5.44526785616114E-19  -6.61264998697067E-34  -5.44526785616115E-19  -1.31734970260215E-17   2.93549648775336E-02
      2.93549645968626E-02   0.00000000000000E+00   0.00000000000000E+00   1.28703099470824E-09   1.75813905195216E-34
      1.28703099470824E-09   4.47080031699952E-18
      3.83280368985698E-02
      0.00000000000000E+00   2.86825923964891E-10   0.00000000000000E+00   0.00000000000000E+00  -1.31877243030483E-09
      4.90031534308058E-34  -1.31877243030483E-09   4.88828592768452E-18   0.00000000000000E+00   0.00000000000000E+00
      0.00000000000000E+00   0.00000000000000E+00   0.00000000000000E+00   0.00000000000000E+00   0.00000000000000E+00
      3.77019456507265E-18   0.00000000000000E+00   0.00000000000000E+00   0.00000000000000E+00   0.00000000000000E+00
     -1.46718718131201E-18  -6.41833981239570E-34  -1.46718718131201E-18  -1.31722562507385E-17   3.29621117327701E-02
      3.29621114451907E-02   0.00000000000000E+00   0.00000000000000E+00   1.31877243177201E-09   1.51802446931513E-34
      1.31877243177201E-09   4.51377575798132E-18
      4.29138670091030E-02
      0.00000000000000E+00   2.92334653453628E-10   0.00000000000000E+00   0.00000000000000E+00  -1.34423883003624E-09
      4.76452579480271E-34  -1.34423883003624E-09   4.88736406821061E-18   0.00000000000000E+00   0.00000000000000E+00
      0.00000000000000E+00   0.00000000000000E+00   0.00000000000000E+00   0.00000000000000E+00   0.00000000000000E+00
      3.72280126671988E-18   0.00000000000000E+00   0.00000000000000E+00   0.00000000000000E+00   0.00000000000000E+00
     -2.75812914787776E-18  -6.18119490610703E-34  -2.75812914787776E-18  -1.31709791285393E-17   3.69059256278286E-02
      3.69059253347241E-02   0.00000000000000E+00   0.00000000000000E+00   1.34423883279437E-09   1.41666911130432E-34
      1.34423883279437E-09   4.56081379360879E-18
      4.79277079299527E-02
      0.00000000000000E+00   2.96776749066340E-10   0.00000000000000E+00   0.00000000000000E+00  -1.36487350204239E-09
      4.72489616981985E-34  -1.36487350204239E-09   4.88635660141912E-18   0.00000000000000E+00   0.00000000000000E+00
      0.00000000000000E+00   0.00000000000000E+00   0.00000000000000E+00   0.00000000000000E+00   0.00000000000000E+00
      3.67101541305361E-18   0.00000000000000E+00   0.00000000000000E+00   0.00000000000000E+00   0.00000000000000E+00
     -4.42080762082325E-18  -5.92180847857904E-34  -4.42080762082326E-18  -1.31696733607363E-17   4.12178288197593E-02
      4.12178285222014E-02   0.00000000000000E+00   0.00000000000000E+00   1.36487350646319E-09   1.19691230875919E-34
      1.36487350646319E-09   4.61230134626363E-18
      5.34095073367482E-02
      0.00000000000000E+00   3.00514734152978E-10   0.00000000000000E+00   0.00000000000000E+00  -1.38234794015365E-09
      4.66537457193997E-34  -1.38234794015365E-09   4.88525557544806E-18   0.00000000000000E+00   0.00000000000000E+00
      0.00000000000000E+00   0.00000000000000E+00   0.00000000000000E+00   0.00000000000000E+00   0.00000000000000E+00
      3.61443053346412E-18   0.00000000000000E+00   0.00000000000000E+00   0.00000000000000E+00   0.00000000000000E+00
     -6.21243009198568E-18  -5.64815973522453E-34  -6.21243009198568E-18  -1.31683484942781E-17   4.59321763096035E-02
      4.59321760083018E-02   0.00000000000000E+00   0.00000000000000E+00   1.38234794636608E-09   9.82785163284555E-35
      1.38234794636608E-09   4.66866238536593E-18
      5.94029413548448E-02
      0.00000000000000E+00   3.03921291419306E-10   0.00000000000000E+00   0.00000000000000E+00  -1.39837667891108E-09
      4.79957152147765E-34  -1.39837667891108E-09   4.88405229777957E-18   0.00000000000000E+00   0.00000000000000E+00
      0.00000000000000E+00   0.00000000000000E+00   0.00000000000000E+00   0.00000000000000E+00   0.00000000000000E+00
      3.55260238876625E-18   0.00000000000000E+00   0.00000000000000E+00   0.00000000000000E+00   0.00000000000000E+00
     -8.48282200726678E-18  -5.66272855135605E-34  -8.48282200726678E-18  -1.31670161247857E-17   5.10865295651665E-02
      5.10865292604584E-02   0.00000000000000E+00   0.00000000000000E+00   1.39837668739390E-09   8.63157029878399E-35
      1.39837668739390E-09   4.73036143823990E-18
      6.59557625479636E-02
      0.00000000000000E+00   3.07326705052671E-10   0.00000000000000E+00   0.00000000000000E+00  -1.41447645929186E-09
      4.46806083606042E-34  -1.41447645929186E-09   4.88273726771424E-18   0.00000000000000E+00   0.00000000000000E+00
      0.00000000000000E+00   0.00000000000000E+00   0.00000000000000E+00   0.00000000000000E+00   0.00000000000000E+00
      3.48504543898608E-18   0.00000000000000E+00   0.00000000000000E+00   0.00000000000000E+00   0.00000000000000E+00
     -1.02777539139643E-17  -5.13460321295715E-34  -1.02777539139643E-17  -1.31656901226366E-17   5.67219557912487E-02
      5.67219554831418E-02   0.00000000000000E+00   0.00000000000000E+00   1.41447646956961E-09   6.66542376896727E-35
      1.41447646956961E-09   4.79790741593625E-18
      7.31201803857736E-02
      0.00000000000000E+00   3.10962704304582E-10   0.00000000000000E+00   0.00000000000000E+00  -1.43170565751167E-09
      4.72537298092293E-34  -1.43170565751167E-09   4.88130010306176E-18   0.00000000000000E+00   0.00000000000000E+00
      0.00000000000000E+00   0.00000000000000E+00   0.00000000000000E+00   0.00000000000000E+00   0.00000000000000E+00
      3.41122899367896E-18   0.00000000000000E+00   0.00000000000000E+00   0.00000000000000E+00   0.00000000000000E+00
      8.22809458090661E-20  -5.29048564322110E-34   8.22809458090656E-20  -1.31643868748793E-17   6.28833551317653E-02
      6.28833548200352E-02   0.00000000000000E+00   0.00000000000000E+00   1.43170565742938E-09   5.65112662298167E-35
      1.43170565742938E-09   4.87185777813864E-18
      8.09055144361937E-02
      0.00000000000000E+00   3.14932119870692E-10   0.00000000000000E+00   0.00000000000000E+00  -1.45052905556936E-09
      4.65187436829011E-34  -1.45052905556936E-09   4.87973903294595E-18   0.00000000000000E+00   0.00000000000000E+00
      0.00000000000000E+00   0.00000000000000E+00   0.00000000000000E+00   0.00000000000000E+00   0.00000000000000E+00
      3.33106463954232E-18   0.00000000000000E+00   0.00000000000000E+00   0.00000000000000E+00   0.00000000000000E+00
      9.35685162925295E-20  -5.10903866879920E-34   9.35685162925290E-20  -1.31631327023708E-17   6.95787424151266E-02
      6.95787420994464E-02   0.00000000000000E+00   0.00000000000000E+00   1.45052905547579E-09   4.57164300509080E-35
      1.45052905547579E-09   4.95232902988257E-18
      8.93655774376503E-02
      0.00000000000000E+00   3.19304923608715E-10   0.00000000000000E+00   0.00000000000000E+00  -1.47126904373778E-09
      4.55823523650000E-34  -1.47126904373778E-09   4.87804336748145E-18   0.00000000000000E+00   0.00000000000000E+00
      0.00000000000000E+00   0.00000000000000E+00   0.00000000000000E+00   0.00000000000000E+00   0.00000000000000E+00
      3.24400585992349E-18   0.00000000000000E+00   0.00000000000000E+00   0.00000000000000E+00   0.00000000000000E+00
      1.02757548620475E-19  -4.90114276051052E-34   1.02757548620475E-19  -1.31619477608518E-17   7.68543965963792E-02
      7.68543962763518E-02   0.00000000000000E+00   0.00000000000000E+00   1.47126904363502E-09   3.42907524010523E-35
      1.47126904363502E-09   5.03989853344690E-18
      9.85588458992330E-02
      0.00000000000000E+00   3.24112311745534E-10   0.00000000000000E+00   0.00000000000000E+00  -1.49407564610101E-09
      4.62941601429445E-34  -1.49407564610101E-09   4.87620149631854E-18   0.00000000000000E+00   0.00000000000000E+00
      0.00000000000000E+00   0.00000000000000E+00   0.00000000000000E+00   0.00000000000000E+00   0.00000000000000E+00
      3.14945892844596E-18   0.00000000000000E+00   0.00000000000000E+00   0.00000000000000E+00   0.00000000000000E+00
      1.82579304482224E-19  -4.89061568362933E-34   1.82579304482223E-19  -1.31608548071628E-17   8.47606074733404E-02
      8.47606071485344E-02   0.00000000000000E+00   0.00000000000000E+00   1.49407564591844E-09   2.61199669334877E-35
      1.49407564591844E-09   5.13519438239833E-18
      1.08548864294153E-01
      0.00000000000000E+00   3.29357210587264E-10   0.00000000000000E+00   0.00000000000000E+00  -1.51897191488997E-09
      4.85349410778336E-34  -1.51897191488997E-09   4.87420080916842E-18   0.00000000000000E+00   0.00000000000000E+00
      0.00000000000000E+00   0.00000000000000E+00   0.00000000000000E+00   0.00000000000000E+00   0.00000000000000E+00
      3.04677882201364E-18   0.00000000000000E+00   0.00000000000000E+00   0.00000000000000E+00   0.00000000000000E+00
     -3.62570969724677E-20  -5.04272434864229E-34  -3.62570969724682E-20  -1.31598793278242E-17   9.33520232929716E-02
      9.33520229629542E-02   0.00000000000000E+00   0.00000000000000E+00   1.51897191492623E-09   1.89230240858928E-35
      1.51897191492623E-09   5.23889969664206E-18
      1.18548864294153E-01
      0.00000000000000E+00   3.34614133343627E-10   0.00000000000000E+00   0.00000000000000E+00  -1.54394574809687E-09
      4.51247527015226E-34  -1.54394574809687E-09   4.87219889613948E-18   0.00000000000000E+00   0.00000000000000E+00
      0.00000000000000E+00   0.00000000000000E+00   0.00000000000000E+00   0.00000000000000E+00   0.00000000000000E+00
      2.94405349381311E-18   0.00000000000000E+00   0.00000000000000E+00   0.00000000000000E+00   0.00000000000000E+00
     -6.49857844460504E-20  -4.66163763674396E-34  -6.49857844460509E-20  -1.31591065773802E-17   1.01952023292972E-01
      1.01952022957735E-01   0.00000000000000E+00   0.00000000000000E+00   1.54394574816186E-09   1.49162366591692E-35
      1.54394574816186E-09   5.34285418742762E-18
      1.28548864294153E-01
      0.00000000000000E+00   3.39888939819512E-10   0.00000000000000E+00   0.00000000000000E+00  -1.56902542335261E-09
      4.78950070310164E-34  -1.56902542335261E-09   4.87019768616015E-18   0.00000000000000E+00   0.00000000000000E+00
      0.00000000000000E+00   0.00000000000000E+00   0.00000000000000E+00   0.00000000000000E+00   0.00000000000000E+00
      2.84138001032060E-18   0.00000000000000E+00   0.00000000000000E+00   0.00000000000000E+00   0.00000000000000E+00
      4.45140169960752E-20  -4.90103642378148E-34   4.45140169960748E-20  -1.31585212359310E-17   1.10552023292972E-01
      1.10552022952503E-01   0.00000000000000E+00   0.00000000000000E+00   1.56902542330810E-09   1.11535720679835E-35
      1.56902542330810E-09   5.44694353945029E-18
      1.38548864294153E-01
      0.00000000000000E+00   3.45193954361434E-10   0.00000000000000E+00   0.00000000000000E+00  -1.59426807930430E-09
      4.54295485535041E-34  -1.59426807930430E-09   4.86819711805020E-18   0.00000000000000E+00   0.00000000000000E+00
      0.00000000000000E+00   0.00000000000000E+00   0.00000000000000E+00   0.00000000000000E+00   0.00000000000000E+00
      2.73875354756223E-18   0.00000000000000E+00   0.00000000000000E+00   0.00000000000000E+00   0.00000000000000E+00
     -2.51290509989087E-20  -4.62560730651726E-34  -2.51290509989092E-20  -1.31581085452590E-17   1.19152023292972E-01
      1.19152022947241E-01   0.00000000000000E+00   0.00000000000000E+00   1.59426807932943E-09   8.26524511668464E-36
      1.59426807932943E-09   5.55115787964656E-18
      1.48548864294153E-01
      0.00000000000000E+00   3.50536637971087E-10   0.00000000000000E+00   0.00000000000000E+00  -1.61970769236630E-09
      4.67643207169354E-34  -1.61970769236630E-09   4.86619714001275E-18   0.00000000000000E+00   0.00000000000000E+00
      0.00000000000000E+00   0.00000000000000E+00   0.00000000000000E+00   0.00000000000000E+00   0.00000000000000E+00
      2.63616995203511E-18   0.00000000000000E+00   0.00000000000000E+00   0.00000000000000E+00   0.00000000000000E+00
     -1.55530483276896E-19  -4.73595800612414E-34  -1.55530483276896E-19  -1.31578552420559E-17   1.27752023292972E-01
      1.27752022941938E-01   0.00000000000000E+00   0.00000000000000E+00   1.61970769252183E-09   5.95259344306053E-36
      1.61970769252183E-09   5.65548815000797E-18
      1.58548864294153E-01
      0.00000000000000E+00   3.55920544375862E-10   0.00000000000000E+00   0.00000000000000E+00  -1.64535993148975E-09
      4.55904420346853E-34  -1.64535993148975E-09   4.86419770644427E-18   0.00000000000000E+00   0.00000000000000E+00
      0.00000000000000E+00   0.00000000000000E+00   0.00000000000000E+00   0.00000000000000E+00   0.00000000000000E+00
      2.53362559363429E-18   0.00000000000000E+00   0.00000000000000E+00   0.00000000000000E+00   0.00000000000000E+00
     -5.28129992391930E-20  -4.60320156600200E-34  -5.28129992391935E-20  -1.31577493239840E-17   1.36352023292972E-01
      1.36352022936589E-01   0.00000000000000E+00   0.00000000000000E+00   1.64535993154256E-09   4.41573625334671E-36
      1.64535993154256E-09   5.75992602390540E-18
      1.68548864294153E-01
      0.00000000000000E+00   3.61346551633579E-10   0.00000000000000E+00   0.00000000000000E+00  -1.67122817478840E-09
      4.58229555310258E-34  -1.67122817478840E-09   4.86219877584490E-18   0.00000000000000E+00   0.00000000000000E+00
      0.00000000000000E+00   0.00000000000000E+00   0.00000000000000E+00   0.00000000000000E+00   0.00000000000000E+00
      2.43111723999378E-18   0.00000000000000E+00   0.00000000000000E+00   0.00000000000000E+00   0.00000000000000E+00
      8.36866163425674E-20  -4.61489805704210E-34   8.36866163425669E-20  -1.31577798477552E-17   1.44952023292972E-01
      1.44952022931196E-01   0.00000000000000E+00   0.00000000000000E+00   1.67122817470471E-09   3.26025039395204E-36
      1.67122817470471E-09   5.86446383191657E-18
      1.78548864294153E-01
      0.00000000000000E+00   3.66814048368126E-10   0.00000000000000E+00   0.00000000000000E+00  -1.69730914144056E-09
      4.45919167030748E-34  -1.69730914144056E-09   4.86020031023556E-18   0.00000000000000E+00   0.00000000000000E+00
      0.00000000000000E+00   0.00000000000000E+00   0.00000000000000E+00   0.00000000000000E+00   0.00000000000000E+00
      2.32864199526080E-18   0.00000000000000E+00   0.00000000000000E+00   0.00000000000000E+00   0.00000000000000E+00
     -3.50598830027243E-20  -4.48340694116212E-34  -3.50598830027247E-20  -1.31579368062489E-17   1.53552023292972E-01
      1.53552022925762E-01   0.00000000000000E+00   0.00000000000000E+00   1.69730914147562E-09   2.42152708546423E-36
      1.69730914147562E-09   5.96909450075257E-18
      1.88548864294153E-01
      0.00000000000000E+00   3.72321946274694E-10   0.00000000000000E+00   0.00000000000000E+00  -1.72359771006536E-09