DF-ISE text

Info {
  version   = 1.0
  type      = xyplot
  datasets  = [
    "time"
    "source OuterVoltage" "source InnerVoltage" "source QuasiFermiPotential" "source DisplacementCurrent" "source eCurrent"
    "source hCurrent" "source TotalCurrent" "source Charge" "gate OuterVoltage" "gate InnerVoltage"
    "gate QuasiFermiPotential" "gate DisplacementCurrent" "gate eCurrent" "gate hCurrent" "gate TotalCurrent"
    "gate Charge" "substrate OuterVoltage" "substrate InnerVoltage" "substrate QuasiFermiPotential" "substrate DisplacementCurrent"
    "substrate eCurrent" "substrate hCurrent" "substrate TotalCurrent" "substrate Charge" "drain OuterVoltage"
    "drain InnerVoltage" "drain QuasiFermiPotential" "drain DisplacementCurrent" "drain eCurrent" "drain hCurrent"
    "drain TotalCurrent" "drain Charge" ]
  functions = [
    Time
    OuterVoltage InnerVoltage QuasiFermiPotential DisplacementCurrent eCurrent
    hCurrent TotalCurrent Charge OuterVoltage InnerVoltage
    QuasiFermiPotential DisplacementCurrent eCurrent hCurrent TotalCurrent
    Charge OuterVoltage InnerVoltage QuasiFermiPotential DisplacementCurrent
    eCurrent hCurrent TotalCurrent Charge OuterVoltage
    InnerVoltage QuasiFermiPotential DisplacementCurrent eCurrent hCurrent
    TotalCurrent Charge ]
}

Data {
      0.00000000000000E+00
      0.00000000000000E+00   0.00000000000000E+00   0.00000000000000E+00   0.00000000000000E+00   4.94215948937155E-21
     -1.29247451745394E-34   4.94215948937142E-21   4.18419108200550E-18   0.00000000000000E+00   0.00000000000000E+00
      0.00000000000000E+00   0.00000000000000E+00   0.00000000000000E+00   0.00000000000000E+00   0.00000000000000E+00
      1.39213368645719E-18   0.00000000000000E+00   0.00000000000000E+00   0.00000000000000E+00   0.00000000000000E+00
     -7.83693861251577E-21   2.74561316269098E-34  -7.83693861251549E-21  -9.43653925745105E-18   0.00000000000000E+00
      0.00000000000000E+00   0.00000000000000E+00   0.00000000000000E+00   2.89477912314422E-21  -1.45313864523705E-34
      2.89477912314407E-21   3.86021448898836E-18
      0.00000000000000E+00
      0.00000000000000E+00   0.00000000000000E+00   0.00000000000000E+00   0.00000000000000E+00   7.22867627185281E-20
     -1.34323350546276E-34   7.22867627185280E-20   4.18271988102866E-18   0.00000000000000E+00   0.00000000000000E+00
      0.00000000000000E+00   0.00000000000000E+00   0.00000000000000E+00   0.00000000000000E+00   0.00000000000000E+00
      1.38757789158948E-18   0.00000000000000E+00   0.00000000000000E+00   0.00000000000000E+00   0.00000000000000E+00
      2.50351394214884E-20   2.82322393072292E-34   2.50351394214886E-20  -9.42928139258479E-18   0.00000000000000E+00
      0.00000000000000E+00   0.00000000000000E+00   0.00000000000000E+00  -9.73219021400165E-20  -1.47999042526015E-34
     -9.73219021400166E-20   3.85898361996664E-18
      1.00000000000000E-03
      0.00000000000000E+00   8.60521070707222E-11   0.00000000000000E+00   0.00000000000000E+00  -3.74553776913448E-10
     -1.27536794641427E-34  -3.74553776913448E-10   4.18232271382226E-18   0.00000000000000E+00   0.00000000000000E+00
      0.00000000000000E+00   0.00000000000000E+00   0.00000000000000E+00   0.00000000000000E+00   0.00000000000000E+00
      1.37712065703192E-18   0.00000000000000E+00   0.00000000000000E+00   0.00000000000000E+00   0.00000000000000E+00
      7.62213130097953E-20   2.65935876332001E-34   7.62213130097956E-20  -9.42858558019136E-18   8.60000000000000E-04
      8.59999913748350E-04   0.00000000000000E+00   0.00000000000000E+00   3.74553776837227E-10  -1.38399081690575E-34
      3.74553776837227E-10   3.86914220933718E-18
      2.08666666666667E-03
      0.00000000000000E+00   1.73554512878744E-10   0.00000000000000E+00   0.00000000000000E+00  -7.55396459178723E-10
     -1.31801094898554E-34  -7.55396459178723E-10   4.18189127446598E-18   0.00000000000000E+00   0.00000000000000E+00
      0.00000000000000E+00   0.00000000000000E+00   0.00000000000000E+00   0.00000000000000E+00   0.00000000000000E+00
      1.36576043426141E-18   0.00000000000000E+00   0.00000000000000E+00   0.00000000000000E+00   0.00000000000000E+00
     -3.28445921777482E-19   2.65981101225173E-34  -3.28445921777482E-19  -9.42783760162816E-18   1.79453333333333E-03
      1.79453315937722E-03   0.00000000000000E+00   0.00000000000000E+00   7.55396459507169E-10  -1.34180006326618E-34
      7.55396459507169E-10   3.88018589290073E-18
      3.27475555555556E-03
      0.00000000000000E+00   2.62188054055789E-10   0.00000000000000E+00   0.00000000000000E+00  -1.14113075197628E-09
     -1.25196657288767E-34  -1.14113075197628E-09   4.18141974379450E-18   0.00000000000000E+00   0.00000000000000E+00
      0.00000000000000E+00   0.00000000000000E+00   0.00000000000000E+00   0.00000000000000E+00   0.00000000000000E+00
      1.35334380947716E-18   0.00000000000000E+00   0.00000000000000E+00   0.00000000000000E+00   0.00000000000000E+00
     -8.96033466752206E-20   2.38971423259464E-34  -8.96033466752204E-20  -9.42702940411887E-18   2.81628977777778E-03
      2.81628951498427E-03   0.00000000000000E+00   0.00000000000000E+00   1.14113075206588E-09  -1.13774765970697E-34
      1.14113075206588E-09   3.89226585084716E-18
      4.57373274074074E-03
      0.00000000000000E+00   3.51089506912565E-10   0.00000000000000E+00   0.00000000000000E+00  -1.52799538051032E-09
     -1.33793143860899E-34  -1.52799538051032E-09   4.18090441177405E-18   0.00000000000000E+00   0.00000000000000E+00
      0.00000000000000E+00   0.00000000000000E+00   0.00000000000000E+00   0.00000000000000E+00   0.00000000000000E+00
      1.33977287488159E-18   0.00000000000000E+00   0.00000000000000E+00   0.00000000000000E+00   0.00000000000000E+00
      8.56501298374105E-20   2.47031862277917E-34   8.56501298374107E-20  -9.42615710478626E-18   3.93341015703704E-03
      3.93340980513837E-03   0.00000000000000E+00   0.00000000000000E+00   1.52799538042467E-09  -1.13238718417018E-34
      1.52799538042467E-09   3.90547981813059E-18
      5.99394779654321E-03
      0.00000000000000E+00   4.39343203833536E-10   0.00000000000000E+00   0.00000000000000E+00  -1.91200354814209E-09
     -1.26256616535439E-34  -1.91200354814209E-09   4.18034122697633E-18   0.00000000000000E+00   0.00000000000000E+00
      0.00000000000000E+00   0.00000000000000E+00   0.00000000000000E+00   0.00000000000000E+00   0.00000000000000E+00
      1.32494069941130E-18   0.00000000000000E+00   0.00000000000000E+00   0.00000000000000E+00   0.00000000000000E+00
      3.90342415704285E-20   2.47157825467196E-34   3.90342415704288E-20  -9.42521675833998E-18   5.15479510502716E-03
      5.15479466467338E-03   0.00000000000000E+00   0.00000000000000E+00   1.91200354810306E-09  -1.20901208931757E-34
      1.91200354810306E-09   3.91993483195233E-18
      7.54671625755391E-03
      0.00000000000000E+00   5.25983531104999E-10   0.00000000000000E+00   0.00000000000000E+00  -2.28895491877378E-09
     -1.29119708239571E-34  -2.28895491877378E-09   4.17972576541354E-18   0.00000000000000E+00   0.00000000000000E+00
      0.00000000000000E+00   0.00000000000000E+00   0.00000000000000E+00   0.00000000000000E+00   0.00000000000000E+00
      1.30873050335575E-18   0.00000000000000E+00   0.00000000000000E+00   0.00000000000000E+00   0.00000000000000E+00
     -1.25164106058325E-19   2.39360829118114E-34  -1.25164106058325E-19  -9.42420439859612E-18   6.49017598149636E-03
      6.49017545430528E-03   0.00000000000000E+00   0.00000000000000E+00   2.28895491889895E-09  -1.10241120878543E-34
      2.28895491889895E-09   3.93574812982683E-18
      9.24440977492561E-03
      0.00000000000000E+00   6.10013501316060E-10   0.00000000000000E+00   0.00000000000000E+00  -2.65451621159008E-09
     -1.30205809177349E-34  -2.65451621159008E-09   4.17905319644084E-18   0.00000000000000E+00   0.00000000000000E+00
      0.00000000000000E+00   0.00000000000000E+00   0.00000000000000E+00   0.00000000000000E+00   0.00000000000000E+00
      1.29101475742027E-18   0.00000000000000E+00   0.00000000000000E+00   0.00000000000000E+00   0.00000000000000E+00
      1.26274384877545E-19   2.29209462169437E-34   1.26274384877545E-19  -9.42311608964280E-18   7.95019240643603E-03
      7.95019179502469E-03   0.00000000000000E+00   0.00000000000000E+00   2.65451621146381E-09  -9.90036529920890E-35
      2.65451621146381E-09   3.95304813578173E-18
      1.11005546872520E-02
      0.00000000000000E+00   6.90433926269905E-10   0.00000000000000E+00   0.00000000000000E+00  -3.00434913807915E-09
     -1.22373107916931E-34  -3.00434913807915E-09   4.17831824543032E-18   0.00000000000000E+00   0.00000000000000E+00
      0.00000000000000E+00   0.00000000000000E+00   0.00000000000000E+00   0.00000000000000E+00   0.00000000000000E+00
      1.27165419856605E-18   0.00000000000000E+00   0.00000000000000E+00   0.00000000000000E+00   0.00000000000000E+00
     -6.75504908249982E-20   2.24792332745624E-34  -6.75504908249980E-20  -9.42194798710777E-18   9.54647703103672E-03
      9.54647633902364E-03   0.00000000000000E+00   0.00000000000000E+00   3.00434913814670E-09  -1.02419224828693E-34
      3.00434913814670E-09   3.97197554311138E-18
      1.31299397913955E-02
      0.00000000000000E+00   7.66280399604220E-10   0.00000000000000E+00   0.00000000000000E+00  -3.33427196799623E-09
     -1.12453981981443E-34  -3.33427196799623E-09   4.17751515301932E-18   0.00000000000000E+00   0.00000000000000E+00
      0.00000000000000E+00   0.00000000000000E+00   0.00000000000000E+00   0.00000000000000E+00   0.00000000000000E+00
      1.25049675675658E-18   0.00000000000000E+00   0.00000000000000E+00   0.00000000000000E+00   0.00000000000000E+00
      2.88688809858298E-19   2.04678984003303E-34   2.88688809858298E-19  -9.42069641399294E-18   1.12917482206002E-02
      1.12917474525704E-02   0.00000000000000E+00   0.00000000000000E+00   3.33427196770754E-09  -9.22250020218604E-35
      3.33427196770754E-09   3.99268450421702E-18
      1.53487341719258E-02
      0.00000000000000E+00   8.36669282521034E-10   0.00000000000000E+00   0.00000000000000E+00  -3.64045985127458E-09
     -1.09832574814146E-34  -3.64045985127458E-09   4.17663763037212E-18   0.00000000000000E+00   0.00000000000000E+00
      0.00000000000000E+00   0.00000000000000E+00   0.00000000000000E+00   0.00000000000000E+00   0.00000000000000E+00
      1.22737638065661E-18   0.00000000000000E+00   0.00000000000000E+00   0.00000000000000E+00   0.00000000000000E+00
     -1.07347751045526E-19   1.98575712506454E-34  -1.07347751045526E-19  -9.41935794716991E-18   1.31999113878562E-02
      1.31999105492804E-02   0.00000000000000E+00   0.00000000000000E+00   3.64045985138193E-09  -8.87431376923087E-35
      3.64045985138193E-09   4.01534393614115E-18
      1.77746160279722E-02
      0.00000000000000E+00   9.00850394182387E-10   0.00000000000000E+00   0.00000000000000E+00  -3.91967438138855E-09
     -1.22015862623316E-34  -3.91967438138855E-09   4.17567881021243E-18   0.00000000000000E+00   0.00000000000000E+00
      0.00000000000000E+00   0.00000000000000E+00   0.00000000000000E+00   0.00000000000000E+00   0.00000000000000E+00
      1.20211175431035E-18   0.00000000000000E+00   0.00000000000000E+00   0.00000000000000E+00   0.00000000000000E+00
     -1.87903676807423E-19   2.08616633918939E-34  -1.87903676807423E-19  -9.41792951908161E-18   1.52861697840561E-02
      1.52861688811570E-02   0.00000000000000E+00   0.00000000000000E+00   3.91967438157646E-09  -8.66007712956232E-35
      3.91967438157646E-09   4.04013895455883E-18
      2.04269135239163E-02
      0.00000000000000E+00   9.58263843257302E-10   0.00000000000000E+00   0.00000000000000E+00  -4.16951093327068E-09
     -1.04796791472440E-34  -4.16951093327068E-09   4.17463119308557E-18   0.00000000000000E+00   0.00000000000000E+00
      0.00000000000000E+00   0.00000000000000E+00   0.00000000000000E+00   0.00000000000000E+00   0.00000000000000E+00
      1.17450489380329E-18   0.00000000000000E+00   0.00000000000000E+00   0.00000000000000E+00   0.00000000000000E+00
      1.06064419911514E-19   1.74566691127198E-34   1.06064419911514E-19  -9.41640853478711E-18   1.75671456305680E-02
      1.75671446701294E-02   0.00000000000000E+00   0.00000000000000E+00   4.16951093316461E-09  -6.97698996547587E-35
      4.16951093316461E-09   4.06727244789825E-18
      2.33267587861485E-02
      0.00000000000000E+00   1.00859971886284E-09   0.00000000000000E+00   0.00000000000000E+00  -4.38865817387141E-09
     -1.36383247011112E-34  -4.38865817387141E-09   4.17348658828552E-18   0.00000000000000E+00   0.00000000000000E+00
      0.00000000000000E+00   0.00000000000000E+00   0.00000000000000E+00   0.00000000000000E+00   0.00000000000000E+00
      1.14433960952452E-18   0.00000000000000E+00   0.00000000000000E+00   0.00000000000000E+00   0.00000000000000E+00
     -2.96029425653091E-19   2.08964659436517E-34  -2.96029425653091E-19  -9.41479300208157E-18   2.00610125560877E-02
      2.00610115452045E-02   0.00000000000000E+00   0.00000000000000E+00   4.38865817416744E-09  -7.25814124254047E-35
      4.38865817416744E-09   4.09696680427151E-18
      2.64972562728556E-02
      0.00000000000000E+00   1.05185568535244E-09   0.00000000000000E+00   0.00000000000000E+00  -4.57714780259364E-09
     -1.03390319900169E-34  -4.57714780259364E-09   4.17223604887721E-18   0.00000000000000E+00   0.00000000000000E+00
      0.00000000000000E+00   0.00000000000000E+00   0.00000000000000E+00   0.00000000000000E+00   0.00000000000000E+00
      1.11137981962538E-18   0.00000000000000E+00   0.00000000000000E+00   0.00000000000000E+00   0.00000000000000E+00
     -4.72339154600207E-19   1.68228589619481E-34  -4.72339154600207E-19  -9.41308167421224E-18   2.27876403946559E-02
      2.27876393404258E-02   0.00000000000000E+00   0.00000000000000E+00   4.57714780306598E-09  -6.48382697193122E-35
      4.57714780306598E-09   4.12946580570962E-18
      2.99636668583222E-02
      0.00000000000000E+00   1.08838417772240E-09   0.00000000000000E+00   0.00000000000000E+00  -4.73655854612827E-09
     -1.20175300025312E-34  -4.73655854612827E-09   4.17086980023640E-18   0.00000000000000E+00   0.00000000000000E+00
      0.00000000000000E+00   0.00000000000000E+00   0.00000000000000E+00   0.00000000000000E+00   0.00000000000000E+00
      1.07536770021187E-18   0.00000000000000E+00   0.00000000000000E+00   0.00000000000000E+00   0.00000000000000E+00
     -5.38246721818383E-19   1.74184428820255E-34  -5.38246721818383E-19  -9.41127420608014E-18   2.57687534981571E-02
      2.57687524073262E-02   0.00000000000000E+00   0.00000000000000E+00   4.73655854666652E-09  -5.40091287949431E-35
      4.73655854666652E-09   4.16503670563188E-18
      3.37536090984323E-02
      0.00000000000000E+00   1.11891828555139E-09   0.00000000000000E+00   0.00000000000000E+00  -4.87012714970136E-09
     -1.29303382275386E-34  -4.87012714970136E-09   4.16937716135672E-18   0.00000000000000E+00   0.00000000000000E+00
      0.00000000000000E+00   0.00000000000000E+00   0.00000000000000E+00   0.00000000000000E+00   0.00000000000000E+00
      1.03602165465950E-18   0.00000000000000E+00   0.00000000000000E+00   0.00000000000000E+00   0.00000000000000E+00
     -8.37793331199561E-19   1.73360237544458E-34  -8.37793331199561E-19  -9.40937132038426E-18   2.90281038246517E-02
      2.90281027032347E-02   0.00000000000000E+00   0.00000000000000E+00   4.87012715053915E-09  -4.40568552690721E-35
      4.87012715053915E-09   4.20397250436805E-18
      3.78972792809526E-02
      0.00000000000000E+00   1.14457462518314E-09   0.00000000000000E+00   0.00000000000000E+00  -4.98275551211952E-09
     -1.43265231262508E-34  -4.98275551211952E-09   4.16774645806209E-18   0.00000000000000E+00   0.00000000000000E+00
      0.00000000000000E+00   0.00000000000000E+00   0.00000000000000E+00   0.00000000000000E+00   0.00000000000000E+00
      9.93034066096498E-19   0.00000000000000E+00   0.00000000000000E+00   0.00000000000000E+00   0.00000000000000E+00
     -9.25634203255022E-19   1.89383245709190E-34  -9.25634203255022E-19  -9.40737496419070E-18   3.25916601816192E-02
      3.25916590345160E-02   0.00000000000000E+00   0.00000000000000E+00   4.98275551304515E-09  -4.61180144466815E-35
      4.98275551304515E-09   4.24659444003212E-18
      4.24276920138415E-02
      0.00000000000000E+00   1.16680620361208E-09   0.00000000000000E+00   0.00000000000000E+00  -5.08080398217031E-09
     -1.08999892536683E-34  -5.08080398217031E-09   4.16596492815796E-18   0.00000000000000E+00   0.00000000000000E+00
      0.00000000000000E+00   0.00000000000000E+00   0.00000000000000E+00   0.00000000000000E+00   0.00000000000000E+00
      9.46068809518789E-19   0.00000000000000E+00   0.00000000000000E+00   0.00000000000000E+00   0.00000000000000E+00
     -5.63860957658400E-19   1.43693691572534E-34  -5.63860957658400E-19  -9.40528844573125E-18   3.64878151319037E-02
      3.64878139625583E-02   0.00000000000000E+00   0.00000000000000E+00   5.08080398273417E-09  -3.46937990358509E-35
      5.08080398273417E-09   4.29325470805445E-18
      4.73809432684667E-02
      0.00000000000000E+00   1.18726233433254E-09   0.00000000000000E+00   0.00000000000000E+00  -5.17148705905963E-09
     -1.10026622094940E-34  -5.17148705905963E-09   4.16401862106583E-18   0.00000000000000E+00   0.00000000000000E+00
      0.00000000000000E+00   0.00000000000000E+00   0.00000000000000E+00   0.00000000000000E+00   0.00000000000000E+00
      8.94758591348557E-19   0.00000000000000E+00   0.00000000000000E+00   0.00000000000000E+00   0.00000000000000E+00
     -6.45708919499738E-19   1.44782916888610E-34  -6.45708919499737E-19  -9.40311665870768E-18   4.07476112108814E-02
      4.07476100210891E-02   0.00000000000000E+00   0.00000000000000E+00   5.17148705970533E-09  -3.47562947936697E-35
      5.17148705970533E-09   4.34433944629326E-18
      5.27964979735236E-02
      0.00000000000000E+00   1.20756129080544E-09   0.00000000000000E+00   0.00000000000000E+00  -5.26186924493516E-09
     -1.33991355781057E-34  -5.26186924493516E-09   4.16189229013207E-18   0.00000000000000E+00   0.00000000000000E+00
      0.00000000000000E+00   0.00000000000000E+00   0.00000000000000E+00   0.00000000000000E+00   0.00000000000000E+00
      8.38701992520025E-19   0.00000000000000E+00   0.00000000000000E+00   0.00000000000000E+00   0.00000000000000E+00
      1.15268244083151E-19   1.62227325350523E-34   1.15268244083151E-19  -9.40086626809746E-18   4.54049882572303E-02
      4.54049870471692E-02   0.00000000000000E+00   0.00000000000000E+00   5.26186924481989E-09  -2.82359695694654E-35
      5.26186924481989E-09   4.40027198544537E-18
      5.86814007530188E-02
      0.00000000000000E+00   1.22890742376905E-09   0.00000000000000E+00   0.00000000000000E+00  -5.35716524732223E-09
     -1.20794743822474E-34  -5.35716524732223E-09   4.15958343444071E-18   0.00000000000000E+00   0.00000000000000E+00
      0.00000000000000E+00   0.00000000000000E+00   0.00000000000000E+00   0.00000000000000E+00   0.00000000000000E+00
      7.77833519898637E-19   0.00000000000000E+00   0.00000000000000E+00   0.00000000000000E+00   0.00000000000000E+00
      5.43853914007436E-20   1.42044689603958E-34   5.43853914007438E-20  -9.39855962385759E-18   5.04660046475962E-02
      5.04660034162366E-02   0.00000000000000E+00   0.00000000000000E+00   5.35716524726785E-09  -2.12499457814849E-35
      5.35716524726785E-09   4.46114266951820E-18
      6.50763284400702E-02
      0.00000000000000E+00   1.25225916386481E-09   0.00000000000000E+00   0.00000000000000E+00  -5.46152813177826E-09
     -1.43482247818901E-34  -5.46152813177826E-09   4.15707636366534E-18   0.00000000000000E+00   0.00000000000000E+00
      0.00000000000000E+00   0.00000000000000E+00   0.00000000000000E+00   0.00000000000000E+00   0.00000000000000E+00
      7.11739845886766E-19   0.00000000000000E+00   0.00000000000000E+00   0.00000000000000E+00   0.00000000000000E+00
      7.77807198628001E-20   1.62581129124361E-34   7.77807198628003E-20  -9.39620723528685E-18   5.59656424584604E-02
      5.59656412038174E-02   0.00000000000000E+00   0.00000000000000E+00   5.46152813170048E-09  -1.90988813054601E-35
      5.46152813170048E-09   4.52739102573474E-18
      7.20254831933328E-02
      0.00000000000000E+00   1.27827853900313E-09   0.00000000000000E+00   0.00000000000000E+00  -5.57787136695887E-09
     -1.13821597427137E-34  -5.57787136695887E-09   4.15435404464330E-18   0.00000000000000E+00   0.00000000000000E+00
      0.00000000000000E+00   0.00000000000000E+00   0.00000000000000E+00   0.00000000000000E+00   0.00000000000000E+00
      6.39971968647337E-19   0.00000000000000E+00   0.00000000000000E+00   0.00000000000000E+00   0.00000000000000E+00
     -6.06028727757444E-20   1.30515228932314E-34  -6.06028727757443E-20  -9.39382177252668E-18   6.19419155462662E-02
      6.19419142657002E-02   0.00000000000000E+00   0.00000000000000E+00   5.57787136701948E-09  -1.66936315051773E-35
      5.57787136701948E-09   4.59949575923604E-18
      7.95768980252114E-02
      0.00000000000000E+00   1.30729599899163E-09   0.00000000000000E+00   0.00000000000000E+00  -5.70767473148710E-09
     -1.28893337842465E-34  -5.70767473148710E-09   4.15139800583139E-18   0.00000000000000E+00   0.00000000000000E+00
      0.00000000000000E+00   0.00000000000000E+00   0.00000000000000E+00   0.00000000000000E+00   0.00000000000000E+00
      5.62042261159631E-19   0.00000000000000E+00   0.00000000000000E+00   0.00000000000000E+00   0.00000000000000E+00
     -4.78146156898965E-19   1.40439932411395E-34  -4.78146156898965E-19  -9.39141844867650E-18   6.84361323016818E-02
      6.84361309922217E-02   0.00000000000000E+00   0.00000000000000E+00   5.70767473196525E-09  -1.15465945689296E-35
      5.70767473196525E-09   4.67797818168544E-18
      8.77827688091861E-02
      0.00000000000000E+00   1.33939617410529E-09   0.00000000000000E+00   0.00000000000000E+00  -5.85132695069140E-09
     -1.22938929261702E-34  -5.85132695069140E-09   4.14818821767850E-18   0.00000000000000E+00   0.00000000000000E+00
      0.00000000000000E+00   0.00000000000000E+00   0.00000000000000E+00   0.00000000000000E+00   0.00000000000000E+00
      4.77421193829814E-19   0.00000000000000E+00   0.00000000000000E+00   0.00000000000000E+00   0.00000000000000E+00
     -1.54127899168060E-21   1.33337667746857E-34  -1.54127899168046E-21  -9.38901531794438E-18   7.54931811759001E-02
      7.54931798344763E-02   0.00000000000000E+00   0.00000000000000E+00   5.85132695069295E-09  -1.03987384851543E-35
      5.85132695069295E-09   4.76340590643605E-18
      9.66998150611054E-02
      0.00000000000000E+00   1.37471764875182E-09   0.00000000000000E+00   0.00000000000000E+00  -6.00948661641594E-09
     -1.24959959212263E-34  -6.00948661641594E-09   4.14470293472229E-18   0.00000000000000E+00   0.00000000000000E+00
      0.00000000000000E+00   0.00000000000000E+00   0.00000000000000E+00   0.00000000000000E+00   0.00000000000000E+00
      3.85533596278207E-19   0.00000000000000E+00   0.00000000000000E+00   0.00000000000000E+00   0.00000000000000E+00
     -4.21393591860587E-19   1.32764429769826E-34  -4.21393591860587E-19  -9.38663335597667E-18   8.31618409525506E-02
      8.31618395759528E-02   0.00000000000000E+00   0.00000000000000E+00   6.00948661683733E-09  -7.80447055756227E-36
      6.00948661683733E-09   4.85639682497621E-18
      1.06389671988191E-01
      0.00000000000000E+00   1.41362752867102E-09   0.00000000000000E+00   0.00000000000000E+00  -6.18385402220085E-09
     -1.26117710131409E-34  -6.18385402220085E-09   4.14091853266779E-18   0.00000000000000E+00   0.00000000000000E+00
      0.00000000000000E+00   0.00000000000000E+00   0.00000000000000E+00   0.00000000000000E+00   0.00000000000000E+00
      2.85754560318736E-19   0.00000000000000E+00   0.00000000000000E+00   0.00000000000000E+00   0.00000000000000E+00
     -3.94317632443159E-19   1.31929492762988E-34  -3.94317632443158E-19  -9.38429649819161E-18   9.14951179098442E-02
      9.14951164945154E-02   0.00000000000000E+00   0.00000000000000E+00   6.18385402259517E-09  -5.81178263157904E-36
      6.18385402259517E-09   4.95762340520511E-18
      1.16389671988191E-01
      0.00000000000000E+00   1.45449146176000E-09   0.00000000000000E+00   0.00000000000000E+00  -6.36713910084567E-09
     -1.22779336767627E-34  -6.36713910084567E-09   4.13701598750416E-18   0.00000000000000E+00   0.00000000000000E+00
      0.00000000000000E+00   0.00000000000000E+00   0.00000000000000E+00   0.00000000000000E+00   0.00000000000000E+00
      1.82853462690568E-19   0.00000000000000E+00   0.00000000000000E+00   0.00000000000000E+00   0.00000000000000E+00
     -8.74461311776408E-20   1.26825045188126E-34  -8.74461311776407E-20  -9.38213940884267E-18   1.00095117909844E-01
      1.00095116453869E-01   0.00000000000000E+00   0.00000000000000E+00   6.36713910093312E-09  -4.04570842049878E-36
      6.36713910093312E-09   5.06226995864795E-18
      1.26389671988191E-01
      0.00000000000000E+00   1.49621246203441E-09   0.00000000000000E+00   0.00000000000000E+00  -6.55442291514631E-09
     -1.16658139482070E-34  -6.55442291514631E-09   4.13311628982628E-18   0.00000000000000E+00   0.00000000000000E+00
      0.00000000000000E+00   0.00000000000000E+00   0.00000000000000E+00   0.00000000000000E+00   0.00000000000000E+00
      8.00186473324512E-20   0.00000000000000E+00   0.00000000000000E+00   0.00000000000000E+00   0.00000000000000E+00
     -5.32058623652693E-20   1.19948228992544E-34  -5.32058623652692E-20  -9.38022205037675E-18   1.08695117909844E-01
      1.08695116412383E-01   0.00000000000000E+00   0.00000000000000E+00   6.55442291519951E-09  -3.29008951047416E-36
      6.55442291519951E-09   5.16708711321802E-18
      1.36389671988191E-01
      0.00000000000000E+00   1.53888646713521E-09   0.00000000000000E+00   0.00000000000000E+00  -6.74613053427899E-09
     -1.39469243657221E-34  -6.74613053427899E-09   4.12921928159971E-18   0.00000000000000E+00   0.00000000000000E+00
      0.00000000000000E+00   0.00000000000000E+00   0.00000000000000E+00   0.00000000000000E+00   0.00000000000000E+00
     -2.27554164786127E-20   0.00000000000000E+00   0.00000000000000E+00   0.00000000000000E+00   0.00000000000000E+00
     -2.01764761086794E-19   1.41835540568817E-34  -2.01764761086794E-19  -9.37852735820433E-18   1.17295117909844E-01
      1.17295116369947E-01   0.00000000000000E+00   0.00000000000000E+00   6.74613053448076E-09  -2.36629691159620E-36
      6.74613053448076E-09   5.27206349308324E-18
      1.46389671988191E-01
      0.00000000000000E+00   1.58255806070676E-09   0.00000000000000E+00   0.00000000000000E+00  -6.94245830972005E-09
     -1.30029234477594E-34  -6.94245830972005E-09   4.12532482012891E-18   0.00000000000000E+00   0.00000000000000E+00
      0.00000000000000E+00   0.00000000000000E+00   0.00000000000000E+00   0.00000000000000E+00   0.00000000000000E+00
     -1.25473522768174E-19   0.00000000000000E+00   0.00000000000000E+00   0.00000000000000E+00   0.00000000000000E+00
     -8.62655734083614E-20   1.31652816992648E-34  -8.62655734083612E-20  -9.37703991054963E-18   1.25895117909844E-01
      1.25895116326511E-01   0.00000000000000E+00   0.00000000000000E+00   6.94245830980632E-09  -1.62358251505398E-36
      6.94245830980632E-09   5.37718861318889E-18
      1.56389671988191E-01
      0.00000000000000E+00   1.62723316905981E-09   0.00000000000000E+00   0.00000000000000E+00  -7.14343091281852E-09
     -1.29404154742020E-34  -7.14343091281852E-09   4.12143277431828E-18   0.00000000000000E+00   0.00000000000000E+00
      0.00000000000000E+00   0.00000000000000E+00   0.00000000000000E+00   0.00000000000000E+00   0.00000000000000E+00
     -2.28139910784619E-19   0.00000000000000E+00   0.00000000000000E+00   0.00000000000000E+00   0.00000000000000E+00
     -6.85052700999762E-20   1.30693820960951E-34  -6.85052700999761E-20  -9.37574564545916E-18   1.34495117909844E-01
      1.34495116282068E-01   0.00000000000000E+00   0.00000000000000E+00   7.14343091288703E-09  -1.28966621893125E-36
      7.14343091288703E-09   5.48245278192552E-18
      1.66389671988191E-01
      0.00000000000000E+00   1.67289983377705E-09   0.00000000000000E+00   0.00000000000000E+00  -7.34899654177412E-09
     -1.34870287369596E-34  -7.34899654177412E-09   4.11754302424768E-18   0.00000000000000E+00   0.00000000000000E+00
      0.00000000000000E+00   0.00000000000000E+00   0.00000000000000E+00   0.00000000000000E+00   0.00000000000000E+00
     -3.30758357915913E-19   0.00000000000000E+00   0.00000000000000E+00   0.00000000000000E+00   0.00000000000000E+00
     -7.44607244020119E-20   1.35769529441408E-34  -7.44607244020117E-20  -9.37463168986099E-18   1.43095117909844E-01
      1.43095116236635E-01   0.00000000000000E+00   0.00000000000000E+00   7.34899654184858E-09  -8.99242071812362E-37
      7.34899654184858E-09   5.58784702352923E-18
      1.76389671988191E-01
      0.00000000000000E+00   1.71954728984146E-09   0.00000000000000E+00   0.00000000000000E+00  -7.55911071435710E-09
     -1.26301890334021E-34  -7.55911071435710E-09   4.11365546567198E-18   0.00000000000000E+00   0.00000000000000E+00
      0.00000000000000E+00   0.00000000000000E+00   0.00000000000000E+00   0.00000000000000E+00   0.00000000000000E+00
     -4.33332139053555E-19   0.00000000000000E+00   0.00000000000000E+00   0.00000000000000E+00   0.00000000000000E+00
      5.16701699696697E-20   1.26978420691958E-34   5.16701699696699E-20  -9.37368636105387E-18   1.51695117909844E-01
      1.51695116190230E-01   0.00000000000000E+00   0.00000000000000E+00   7.55911071430543E-09  -6.76530357936678E-37
      7.55911071430543E-09   5.69336303443545E-18
      1.86389671988191E-01
      0.00000000000000E+00   1.76717374860585E-09   0.00000000000000E+00   0.00000000000000E+00  -7.77377179189066E-09