DF-ISE text

Info {
  version   = 1.0
  type      = xyplot
  datasets  = [
    "time"
    "source OuterVoltage" "source InnerVoltage" "source QuasiFermiPotential" "source DisplacementCurrent" "source eCurrent"
    "source hCurrent" "source TotalCurrent" "source Charge" "gate OuterVoltage" "gate InnerVoltage"
    "gate QuasiFermiPotential" "gate DisplacementCurrent" "gate eCurrent" "gate hCurrent" "gate TotalCurrent"
    "gate Charge" "substrate OuterVoltage" "substrate InnerVoltage" "substrate QuasiFermiPotential" "substrate DisplacementCurrent"
    "substrate eCurrent" "substrate hCurrent" "substrate TotalCurrent" "substrate Charge" "drain OuterVoltage"
    "drain InnerVoltage" "drain QuasiFermiPotential" "drain DisplacementCurrent" "drain eCurrent" "drain hCurrent"
    "drain TotalCurrent" "drain Charge" ]
  functions = [
    Time
    OuterVoltage InnerVoltage QuasiFermiPotential DisplacementCurrent eCurrent
    hCurrent TotalCurrent Charge OuterVoltage InnerVoltage
    QuasiFermiPotential DisplacementCurrent eCurrent hCurrent TotalCurrent
    Charge OuterVoltage InnerVoltage QuasiFermiPotential DisplacementCurrent
    eCurrent hCurrent TotalCurrent Charge OuterVoltage
    InnerVoltage QuasiFermiPotential DisplacementCurrent eCurrent hCurrent
    TotalCurrent Charge ]
}

Data {
      0.00000000000000E+00
      0.00000000000000E+00   0.00000000000000E+00   0.00000000000000E+00   0.00000000000000E+00  -4.95340611082166E-21
     -1.17927312998917E-34  -4.95340611082178E-21   4.08524381023787E-18   0.00000000000000E+00   0.00000000000000E+00
      0.00000000000000E+00   0.00000000000000E+00   0.00000000000000E+00   0.00000000000000E+00   0.00000000000000E+00
      1.39496988017072E-18   0.00000000000000E+00   0.00000000000000E+00   0.00000000000000E+00   0.00000000000000E+00
     -2.04440262740398E-21   2.45232849086124E-34  -2.04440262740373E-21  -9.26832820814672E-18   0.00000000000000E+00
      0.00000000000000E+00   0.00000000000000E+00   0.00000000000000E+00   6.99780873822564E-21  -1.27305536087207E-34
      6.99780873822551E-21   3.78811451773816E-18
      0.00000000000000E+00
      0.00000000000000E+00   0.00000000000000E+00   0.00000000000000E+00   0.00000000000000E+00  -4.87983093950780E-20
     -1.13562836881785E-34  -4.87983093950781E-20   4.08382953453992E-18   0.00000000000000E+00   0.00000000000000E+00
      0.00000000000000E+00   0.00000000000000E+00   0.00000000000000E+00   0.00000000000000E+00   0.00000000000000E+00
      1.39057642980281E-18   0.00000000000000E+00   0.00000000000000E+00   0.00000000000000E+00   0.00000000000000E+00
      2.44006867473232E-19   2.41805615076835E-34   2.44006867473233E-19  -9.26133578442189E-18   0.00000000000000E+00
      0.00000000000000E+00   0.00000000000000E+00   0.00000000000000E+00  -1.95208558078154E-19  -1.28242778195050E-34
     -1.95208558078154E-19   3.78692982007915E-18
      1.00000000000000E-03
      0.00000000000000E+00   8.05602932403532E-11   0.00000000000000E+00   0.00000000000000E+00  -3.44834982081893E-10
     -1.11448136619578E-34  -3.44834982081893E-10   4.08342694837332E-18   0.00000000000000E+00   0.00000000000000E+00
      0.00000000000000E+00   0.00000000000000E+00   0.00000000000000E+00   0.00000000000000E+00   0.00000000000000E+00
      1.38048966603579E-18   0.00000000000000E+00   0.00000000000000E+00   0.00000000000000E+00   0.00000000000000E+00
     -7.27745229820233E-20   2.37795214797146E-34  -7.27745229820231E-20  -9.26066595003120E-18   8.60000000000000E-04
      8.59999919248804E-04   0.00000000000000E+00   0.00000000000000E+00   3.44834982154667E-10  -1.26347078177568E-34
      3.44834982154667E-10   3.79674933562209E-18
      2.08666666666667E-03
      0.00000000000000E+00   1.62455215701974E-10   0.00000000000000E+00   0.00000000000000E+00  -6.95360933452978E-10
     -1.32947697040788E-34  -6.95360933452978E-10   4.08298961932381E-18   0.00000000000000E+00   0.00000000000000E+00
      0.00000000000000E+00   0.00000000000000E+00   0.00000000000000E+00   0.00000000000000E+00   0.00000000000000E+00
      1.36953172888982E-18   0.00000000000000E+00   0.00000000000000E+00   0.00000000000000E+00   0.00000000000000E+00
     -3.33828707563806E-20   2.64405922722761E-34  -3.33828707563804E-20  -9.25994571591412E-18   1.79453333333333E-03
      1.79453317049385E-03   0.00000000000000E+00   0.00000000000000E+00   6.95360933486361E-10  -1.31458225681973E-34
      6.95360933486361E-10   3.80742436770047E-18
      3.27475555555556E-03
      0.00000000000000E+00   2.45379259614001E-10   0.00000000000000E+00   0.00000000000000E+00  -1.05026262470984E-09
     -1.39643047618396E-34  -1.05026262470984E-09   4.08251164797020E-18   0.00000000000000E+00   0.00000000000000E+00
      0.00000000000000E+00   0.00000000000000E+00   0.00000000000000E+00   0.00000000000000E+00   0.00000000000000E+00
      1.35755459379864E-18   0.00000000000000E+00   0.00000000000000E+00   0.00000000000000E+00   0.00000000000000E+00
     -1.50943121032285E-19   2.63696962723378E-34  -1.50943121032285E-19  -9.25916728378923E-18   2.81628977777778E-03
      2.81628953181911E-03   0.00000000000000E+00   0.00000000000000E+00   1.05026262486078E-09  -1.24053915104982E-34
      1.05026262486078E-09   3.81910104202038E-18
      4.57373274074074E-03
      0.00000000000000E+00   3.28519943031165E-10   0.00000000000000E+00   0.00000000000000E+00  -1.40605875608849E-09
     -1.27463981863400E-34  -1.40605875608849E-09   4.08198927259118E-18   0.00000000000000E+00   0.00000000000000E+00
      0.00000000000000E+00   0.00000000000000E+00   0.00000000000000E+00   0.00000000000000E+00   0.00000000000000E+00
      1.34446376622985E-18   0.00000000000000E+00   0.00000000000000E+00   0.00000000000000E+00   0.00000000000000E+00
      3.89301952369114E-20   2.51659909563034E-34   3.89301952369117E-20  -9.25832686031191E-18   3.93341015703704E-03
      3.93340982774262E-03   0.00000000000000E+00   0.00000000000000E+00   1.40605875604957E-09  -1.24195927699634E-34
      1.40605875604957E-09   3.83187382149088E-18
      5.99394779654321E-03
      0.00000000000000E+00   4.11017355268900E-10   0.00000000000000E+00   0.00000000000000E+00  -1.75906772016492E-09
     -1.23599851013315E-34  -1.75906772016492E-09   4.08141838519762E-18   0.00000000000000E+00   0.00000000000000E+00
      0.00000000000000E+00   0.00000000000000E+00   0.00000000000000E+00   0.00000000000000E+00   0.00000000000000E+00
      1.33015603772848E-18   0.00000000000000E+00   0.00000000000000E+00   0.00000000000000E+00   0.00000000000000E+00
      1.71544654500405E-19   2.38116231510349E-34   1.71544654500405E-19  -9.25742058228197E-18   5.15479510502716E-03
      5.15479469304239E-03   0.00000000000000E+00   0.00000000000000E+00   1.75906771999337E-09  -1.14516380497033E-34
      1.75906771999337E-09   3.84584615935584E-18
      7.54671625755391E-03
      0.00000000000000E+00   4.91966914585458E-10   0.00000000000000E+00   0.00000000000000E+00  -2.10542005136406E-09
     -1.26692115062952E-34  -2.10542005136406E-09   4.08079449990945E-18   0.00000000000000E+00   0.00000000000000E+00
      0.00000000000000E+00   0.00000000000000E+00   0.00000000000000E+00   0.00000000000000E+00   0.00000000000000E+00
      1.31451868814144E-18   0.00000000000000E+00   0.00000000000000E+00   0.00000000000000E+00   0.00000000000000E+00
     -8.83787980337957E-21   2.34425902756567E-34  -8.83787980337934E-21  -9.25644455521581E-18   6.49017598149636E-03
      6.49017548837326E-03   0.00000000000000E+00   0.00000000000000E+00   2.10542005137290E-09  -1.07733787693616E-34
      2.10542005137290E-09   3.86113136716495E-18
      9.24440977492561E-03
      0.00000000000000E+00   5.70437197175894E-10   0.00000000000000E+00   0.00000000000000E+00  -2.44113511128008E-09
     -1.18957295779734E-34  -2.44113511128008E-09   4.08011271834936E-18   0.00000000000000E+00   0.00000000000000E+00
      0.00000000000000E+00   0.00000000000000E+00   0.00000000000000E+00   0.00000000000000E+00   0.00000000000000E+00
      1.29742861466383E-18   0.00000000000000E+00   0.00000000000000E+00   0.00000000000000E+00   0.00000000000000E+00
     -9.87639863519919E-20   2.24812928401860E-34  -9.87639863519916E-20  -9.25539490090017E-18   7.95019240643603E-03
      7.95019183466020E-03   0.00000000000000E+00   0.00000000000000E+00   2.44113511137884E-09  -1.05855632622125E-34
      2.44113511137884E-09   3.87785356788696E-18
      1.11005546872520E-02
      0.00000000000000E+00   6.45497319188715E-10   0.00000000000000E+00   0.00000000000000E+00  -2.76223888068022E-09
     -1.24946960231742E-34  -2.76223888068022E-09   4.07936769181371E-18   0.00000000000000E+00   0.00000000000000E+00
      0.00000000000000E+00   0.00000000000000E+00   0.00000000000000E+00   0.00000000000000E+00   0.00000000000000E+00
      1.27875138125582E-18   0.00000000000000E+00   0.00000000000000E+00   0.00000000000000E+00   0.00000000000000E+00
      1.26641670528940E-19   2.21340733224891E-34   1.26641670528941E-19  -9.25426781587341E-18   9.54647703103672E-03
      9.54647638402685E-03   0.00000000000000E+00   0.00000000000000E+00   2.76223888055358E-09  -9.63937729931487E-35
      2.76223888055358E-09   3.89614874280388E-18
      1.31299397913955E-02
      0.00000000000000E+00   7.16252281739754E-10   0.00000000000000E+00   0.00000000000000E+00  -3.06491571291686E-09
     -1.06702359686992E-34  -3.06491571291686E-09   4.07855357989820E-18   0.00000000000000E+00   0.00000000000000E+00
      0.00000000000000E+00   0.00000000000000E+00   0.00000000000000E+00   0.00000000000000E+00   0.00000000000000E+00
      1.25834018064614E-18   0.00000000000000E+00   0.00000000000000E+00   0.00000000000000E+00   0.00000000000000E+00
      4.04418307103365E-20   1.92513657188740E-34   4.04418307103367E-20  -9.25305964173976E-18   1.12917482206002E-02
      1.12917475026720E-02   0.00000000000000E+00   0.00000000000000E+00   3.06491571287641E-09  -8.58112975017472E-35
      3.06491571287641E-09   3.91616588119542E-18
      1.53487341719258E-02
      0.00000000000000E+00   7.81886120388705E-10   0.00000000000000E+00   0.00000000000000E+00  -3.34569331280924E-09
     -1.17666330016327E-34  -3.34569331280924E-09   4.07766400521758E-18   0.00000000000000E+00   0.00000000000000E+00
      0.00000000000000E+00   0.00000000000000E+00   0.00000000000000E+00   0.00000000000000E+00   0.00000000000000E+00
      1.23603470064137E-18   0.00000000000000E+00   0.00000000000000E+00   0.00000000000000E+00   0.00000000000000E+00
     -1.32526712824200E-19   2.00299113650707E-34  -1.32526712824200E-19  -9.25176694909493E-18   1.31999113878562E-02
      1.31999106041434E-02   0.00000000000000E+00   0.00000000000000E+00   3.34569331294176E-09  -8.26327836343792E-35
      3.34569331294176E-09   3.93806824323601E-18
      1.77746160279722E-02
      0.00000000000000E+00   8.41712847378362E-10   0.00000000000000E+00   0.00000000000000E+00  -3.60166058691389E-09
     -1.33831088949959E-34  -3.60166058691389E-09   4.07669200366760E-18   0.00000000000000E+00   0.00000000000000E+00
      0.00000000000000E+00   0.00000000000000E+00   0.00000000000000E+00   0.00000000000000E+00   0.00000000000000E+00
      1.21165988248225E-18   0.00000000000000E+00   0.00000000000000E+00   0.00000000000000E+00   0.00000000000000E+00
     -7.96402401575128E-20   2.17686472641388E-34  -7.96402401575125E-20  -9.25038663174829E-18   1.52861697840561E-02
      1.52861689403799E-02   0.00000000000000E+00   0.00000000000000E+00   3.60166058699354E-09  -8.38553836914286E-35
      3.60166058699354E-09   3.96203474559845E-18
      2.04269135239163E-02
      0.00000000000000E+00   8.95227595113289E-10   0.00000000000000E+00   0.00000000000000E+00  -3.83068716481283E-09
     -1.09469028073829E-34  -3.83068716481283E-09   4.07562997007214E-18   0.00000000000000E+00   0.00000000000000E+00
      0.00000000000000E+00   0.00000000000000E+00   0.00000000000000E+00   0.00000000000000E+00   0.00000000000000E+00
      1.18502456703664E-18   0.00000000000000E+00   0.00000000000000E+00   0.00000000000000E+00   0.00000000000000E+00
     -3.35903930208818E-20   1.92388323583891E-34  -3.35903930208816E-20  -9.24891602118180E-18   1.75671456305680E-02
      1.75671447332561E-02   0.00000000000000E+00   0.00000000000000E+00   3.83068716484642E-09  -8.29192955100625E-35
      3.83068716484642E-09   3.98826148407302E-18
      2.33267587861485E-02
      0.00000000000000E+00   9.42163762306302E-10   0.00000000000000E+00   0.00000000000000E+00  -4.03166702452443E-09
     -1.31522558274215E-34  -4.03166702452443E-09   4.07446959837989E-18   0.00000000000000E+00   0.00000000000000E+00
      0.00000000000000E+00   0.00000000000000E+00   0.00000000000000E+00   0.00000000000000E+00   0.00000000000000E+00
      1.15592000907761E-18   0.00000000000000E+00   0.00000000000000E+00   0.00000000000000E+00   0.00000000000000E+00
     -5.51528821853017E-20   1.94337101497034E-34  -5.51528821853015E-20  -9.24735301141577E-18   2.00610125560877E-02
      2.00610116117349E-02   0.00000000000000E+00   0.00000000000000E+00   4.03166702457959E-09  -6.28145432228185E-35
      4.03166702457959E-09   4.01696340395828E-18
      2.64972562728556E-02
      0.00000000000000E+00   9.82545966271965E-10   0.00000000000000E+00   0.00000000000000E+00  -4.20474476742380E-09
     -1.14318561954969E-34  -4.20474476742380E-09   4.07320181583834E-18   0.00000000000000E+00   0.00000000000000E+00
      0.00000000000000E+00   0.00000000000000E+00   0.00000000000000E+00   0.00000000000000E+00   0.00000000000000E+00
      1.12411824885587E-18   0.00000000000000E+00   0.00000000000000E+00   0.00000000000000E+00   0.00000000000000E+00
     -1.09177622017496E-19   1.79016362276174E-34  -1.09177622017495E-19  -9.24569619610235E-18   2.27876403946559E-02
      2.27876394098332E-02   0.00000000000000E+00   0.00000000000000E+00   4.20474476753298E-09  -6.46978003212052E-35
      4.20474476753298E-09   4.04837613140811E-18
      2.99636668583222E-02
      0.00000000000000E+00   1.01673330179781E-09   0.00000000000000E+00   0.00000000000000E+00  -4.35149926547908E-09
     -1.13968518242464E-34  -4.35149926547908E-09   4.07181671076943E-18   0.00000000000000E+00   0.00000000000000E+00
      0.00000000000000E+00   0.00000000000000E+00   0.00000000000000E+00   0.00000000000000E+00   0.00000000000000E+00
      1.08937032730123E-18   0.00000000000000E+00   0.00000000000000E+00   0.00000000000000E+00   0.00000000000000E+00
     -4.06378918354400E-19   1.73254127267438E-34  -4.06378918354400E-19  -9.24394502164885E-18   2.57687534981571E-02
      2.57687524790769E-02   0.00000000000000E+00   0.00000000000000E+00   4.35149926588546E-09  -5.92856090249744E-35
      4.35149926588546E-09   4.08275798357819E-18
      3.37536090984323E-02
      0.00000000000000E+00   1.04544360219493E-09   0.00000000000000E+00   0.00000000000000E+00  -4.47504489276619E-09
     -1.27581334456197E-34  -4.47504489276619E-09   4.07030345288718E-18   0.00000000000000E+00   0.00000000000000E+00
      0.00000000000000E+00   0.00000000000000E+00   0.00000000000000E+00   0.00000000000000E+00   0.00000000000000E+00
      1.05140432204544E-18   0.00000000000000E+00   0.00000000000000E+00   0.00000000000000E+00   0.00000000000000E+00
     -6.77626632431283E-19   1.77664306686816E-34  -6.77626632431283E-19  -9.24209994451061E-18   2.90281038246517E-02
      2.90281027768087E-02   0.00000000000000E+00   0.00000000000000E+00   4.47504489344381E-09  -5.00829722306194E-35
      4.47504489344381E-09   4.12039216957800E-18
      3.78972792809526E-02
      0.00000000000000E+00   1.06974544471083E-09   0.00000000000000E+00   0.00000000000000E+00  -4.57999528910232E-09
     -1.10840017500887E-34  -4.57999528910232E-09   4.06865020589377E-18   0.00000000000000E+00   0.00000000000000E+00
      0.00000000000000E+00   0.00000000000000E+00   0.00000000000000E+00   0.00000000000000E+00   0.00000000000000E+00
      1.00992319604131E-18   0.00000000000000E+00   0.00000000000000E+00   0.00000000000000E+00   0.00000000000000E+00
     -8.45357321537784E-19   1.56710081085392E-34  -8.45357321537784E-19  -9.24016260440818E-18   3.25916601816192E-02
      3.25916591094425E-02   0.00000000000000E+00   0.00000000000000E+00   4.57999528994768E-09  -4.58700635845050E-35
      4.57999528994768E-09   4.16158920247310E-18
      4.24276920138415E-02
      0.00000000000000E+00   1.09102105637058E-09   0.00000000000000E+00   0.00000000000000E+00  -4.67230104980119E-09
     -1.27247597938407E-34  -4.67230104980119E-09   4.06684403142116E-18   0.00000000000000E+00   0.00000000000000E+00
      0.00000000000000E+00   0.00000000000000E+00   0.00000000000000E+00   0.00000000000000E+00   0.00000000000000E+00
      9.64602396496156E-19   0.00000000000000E+00   0.00000000000000E+00   0.00000000000000E+00   0.00000000000000E+00
     -9.89200545574203E-19   1.65985494491496E-34  -9.89200545574203E-19  -9.23813596047946E-18   3.64878151319037E-02
      3.64878140384384E-02   0.00000000000000E+00   0.00000000000000E+00   4.67230105079039E-09  -3.87378965530895E-35
      4.67230105079039E-09   4.20668953256211E-18
      4.73809432684667E-02
      0.00000000000000E+00   1.11083841813279E-09   0.00000000000000E+00   0.00000000000000E+00  -4.75870931999538E-09
     -1.25793661571032E-34  -4.75870931999538E-09   4.06487078724990E-18   0.00000000000000E+00   0.00000000000000E+00
      0.00000000000000E+00   0.00000000000000E+00   0.00000000000000E+00   0.00000000000000E+00   0.00000000000000E+00
      9.15087278527512E-19   0.00000000000000E+00   0.00000000000000E+00   0.00000000000000E+00   0.00000000000000E+00
     -2.01850896825423E-18   1.59530161347457E-34  -2.01850896825423E-18  -9.23602449952643E-18   4.07476112108814E-02
      4.07476100976043E-02   0.00000000000000E+00   0.00000000000000E+00   4.75870932201389E-09  -3.37364997764254E-35
      4.75870932201389E-09   4.25606643374901E-18
      5.27964979735236E-02
      0.00000000000000E+00   1.13072868589639E-09   0.00000000000000E+00   0.00000000000000E+00  -4.84579938031204E-09
     -1.21672214794783E-34  -4.84579938031204E-09   4.06271501889455E-18   0.00000000000000E+00   0.00000000000000E+00
      0.00000000000000E+00   0.00000000000000E+00   0.00000000000000E+00   0.00000000000000E+00   0.00000000000000E+00
      8.60990269898672E-19   0.00000000000000E+00   0.00000000000000E+00   0.00000000000000E+00   0.00000000000000E+00
      1.67587795123366E-19   1.50000149037053E-34   1.67587795123366E-19  -9.23383444258985E-18   4.54049882572303E-02
      4.54049871240878E-02   0.00000000000000E+00   0.00000000000000E+00   4.84579938014445E-09  -2.83279342422695E-35
      4.84579938014445E-09   4.31012915379661E-18
      5.86814007530188E-02
      0.00000000000000E+00   1.15180024312000E-09   0.00000000000000E+00   0.00000000000000E+00  -4.93829117664397E-09
     -1.11731139586404E-34  -4.93829117664397E-09   4.06037419674396E-18   0.00000000000000E+00   0.00000000000000E+00
      0.00000000000000E+00   0.00000000000000E+00   0.00000000000000E+00   0.00000000000000E+00   0.00000000000000E+00
      8.02248014991557E-19   0.00000000000000E+00   0.00000000000000E+00   0.00000000000000E+00   0.00000000000000E+00
     -5.34985031989200E-20   1.34008034675195E-34  -5.34985031989199E-20  -9.23158732945999E-18   5.04660046475962E-02
      5.04660034934230E-02   0.00000000000000E+00   0.00000000000000E+00   4.93829117669747E-09  -2.22768950887908E-35
      4.93829117669747E-09   4.36896511772449E-18
      6.50763284400702E-02
      0.00000000000000E+00   1.17490931792373E-09   0.00000000000000E+00   0.00000000000000E+00  -5.03982224636361E-09
     -1.20517906403888E-34  -5.03982224636361E-09   4.05783242113224E-18   0.00000000000000E+00   0.00000000000000E+00
      0.00000000000000E+00   0.00000000000000E+00   0.00000000000000E+00   0.00000000000000E+00   0.00000000000000E+00
      7.38461506089659E-19   0.00000000000000E+00   0.00000000000000E+00   0.00000000000000E+00   0.00000000000000E+00
     -1.58580530548369E-20   1.39818104968079E-34  -1.58580530548367E-20  -9.22929322358624E-18   5.59656424584604E-02
      5.59656412812351E-02   0.00000000000000E+00   0.00000000000000E+00   5.03982224637948E-09  -1.93001985641909E-35
      5.03982224637948E-09   4.43299929636434E-18
      7.20254831933328E-02
      0.00000000000000E+00   1.20065849719340E-09   0.00000000000000E+00   0.00000000000000E+00  -5.15299978789567E-09
     -1.31966801862093E-34  -5.15299978789567E-09   4.05507242912167E-18   0.00000000000000E+00   0.00000000000000E+00
      0.00000000000000E+00   0.00000000000000E+00   0.00000000000000E+00   0.00000000000000E+00   0.00000000000000E+00
      6.69197297451181E-19   0.00000000000000E+00   0.00000000000000E+00   0.00000000000000E+00   0.00000000000000E+00
     -6.88663538796038E-20   1.46465209601859E-34  -6.88663538796037E-20  -9.22696429648148E-18   6.19419155462662E-02
      6.19419143433734E-02   0.00000000000000E+00   0.00000000000000E+00   5.15299978796454E-09  -1.44984077397655E-35
      5.15299978796454E-09   4.50269456990864E-18
      7.95768980252114E-02
      0.00000000000000E+00   1.22938421112642E-09   0.00000000000000E+00   0.00000000000000E+00  -5.27932006197523E-09
     -1.17034785666348E-34  -5.27932006197523E-09   4.05207549764738E-18   0.00000000000000E+00   0.00000000000000E+00
      0.00000000000000E+00   0.00000000000000E+00   0.00000000000000E+00   0.00000000000000E+00   0.00000000000000E+00
      5.93984657622514E-19   0.00000000000000E+00   0.00000000000000E+00   0.00000000000000E+00   0.00000000000000E+00
     -1.52301900235829E-19   1.30542586011814E-34  -1.52301900235829E-19  -9.22461521354538E-18   6.84361323016818E-02
      6.84361310701741E-02   0.00000000000000E+00   0.00000000000000E+00   5.27932006212753E-09  -1.35078003454662E-35
      5.27932006212753E-09   4.57855505827548E-18
      8.77827688091861E-02
      0.00000000000000E+00   1.26119212738542E-09   0.00000000000000E+00   0.00000000000000E+00  -5.41926158070543E-09
     -1.32070230152657E-34  -5.41926158070543E-09   4.04882132846296E-18   0.00000000000000E+00   0.00000000000000E+00
      0.00000000000000E+00   0.00000000000000E+00   0.00000000000000E+00   0.00000000000000E+00   0.00000000000000E+00
      5.12312420539271E-19   0.00000000000000E+00   0.00000000000000E+00   0.00000000000000E+00   0.00000000000000E+00
     -2.61278792355582E-19   1.41698280383601E-34  -2.61278792355582E-19  -9.22226345478439E-18   7.54931811759001E-02
      7.54931799127108E-02   0.00000000000000E+00   0.00000000000000E+00   5.41926158096671E-09  -9.62805023094431E-36
      5.41926158096671E-09   4.66112970578214E-18
      9.66998150611054E-02
      0.00000000000000E+00   1.29622997267273E-09   0.00000000000000E+00   0.00000000000000E+00  -5.57350304148001E-09
     -1.23066816053141E-34  -5.57350304148001E-09   4.04528789156501E-18   0.00000000000000E+00   0.00000000000000E+00
      0.00000000000000E+00   0.00000000000000E+00   0.00000000000000E+00   0.00000000000000E+00   0.00000000000000E+00
      4.23625409802195E-19   0.00000000000000E+00   0.00000000000000E+00   0.00000000000000E+00   0.00000000000000E+00
      7.31179571008065E-20   1.30529064925652E-34   7.31179571008066E-20  -9.21992944256403E-18   8.31618409525506E-02
      8.31618396544553E-02   0.00000000000000E+00   0.00000000000000E+00   5.57350304140689E-09  -7.46224887251120E-36
      5.57350304140689E-09   4.75101614119684E-18
      1.06389671988191E-01
      0.00000000000000E+00   1.33487699496822E-09   0.00000000000000E+00   0.00000000000000E+00  -5.74376712241370E-09
     -1.24838418940158E-34  -5.74376712241370E-09   4.04145125277542E-18   0.00000000000000E+00   0.00000000000000E+00
      0.00000000000000E+00   0.00000000000000E+00   0.00000000000000E+00   0.00000000000000E+00   0.00000000000000E+00
      3.27320451298007E-19   0.00000000000000E+00   0.00000000000000E+00   0.00000000000000E+00   0.00000000000000E+00
     -5.04842104549149E-19   1.29983992840451E-34  -5.04842104549149E-19  -9.21763654045824E-18   9.14951179098442E-02
      9.14951165732545E-02   0.00000000000000E+00   0.00000000000000E+00   5.74376712291854E-09  -5.14557390029346E-36
      5.74376712291854E-09   4.84886483638482E-18
      1.16389671988191E-01
      0.00000000000000E+00   1.37553340402930E-09   0.00000000000000E+00   0.00000000000000E+00  -5.92304285405005E-09
     -1.28231130855913E-34  -5.92304285405005E-09   4.03749488923958E-18   0.00000000000000E+00   0.00000000000000E+00
      0.00000000000000E+00   0.00000000000000E+00   0.00000000000000E+00   0.00000000000000E+00   0.00000000000000E+00
      2.28000873935875E-19   0.00000000000000E+00   0.00000000000000E+00   0.00000000000000E+00   0.00000000000000E+00
     -3.82276008563968E-19   1.32299778615262E-34  -3.82276008563968E-19  -9.21551694825092E-18   1.00095117909844E-01
      1.00095116532788E-01   0.00000000000000E+00   0.00000000000000E+00   5.92304285443232E-09  -4.06864775934879E-36
      5.92304285443232E-09   4.95002118507546E-18
      1.26389671988191E-01
      0.00000000000000E+00   1.41711885770715E-09   0.00000000000000E+00   0.00000000000000E+00  -6.10656890147752E-09
     -1.24932034046008E-34  -6.10656890147752E-09   4.03354145808954E-18   0.00000000000000E+00   0.00000000000000E+00
      0.00000000000000E+00   0.00000000000000E+00   0.00000000000000E+00   0.00000000000000E+00   0.00000000000000E+00
      1.28744184924435E-19   0.00000000000000E+00   0.00000000000000E+00   0.00000000000000E+00   0.00000000000000E+00
     -1.61587012238039E-19   1.27842954278912E-34  -1.61587012238038E-19  -9.21363001554402E-18   1.08695117909844E-01
      1.08695116491423E-01   0.00000000000000E+00   0.00000000000000E+00   6.10656890163911E-09  -2.91092023290412E-36
      6.10656890163911E-09   5.05134437253003E-18
      1.36389671988191E-01
      0.00000000000000E+00   1.45972730907292E-09   0.00000000000000E+00   0.00000000000000E+00  -6.29475490288956E-09
     -1.18503454066131E-34  -6.29475490288956E-09   4.02959080128769E-18   0.00000000000000E+00   0.00000000000000E+00
      0.00000000000000E+00   0.00000000000000E+00   0.00000000000000E+00   0.00000000000000E+00   0.00000000000000E+00
      2.95452096804447E-20   0.00000000000000E+00   0.00000000000000E+00   0.00000000000000E+00   0.00000000000000E+00
     -1.58403859805296E-20   1.20564005924487E-34  -1.58403859805295E-20  -9.21195949552357E-18   1.17295117909844E-01
      1.17295116449045E-01   0.00000000000000E+00   0.00000000000000E+00   6.29475490290540E-09  -2.06055185835583E-36
      6.29475490290540E-09   5.15282348455544E-18
      1.46389671988191E-01
      0.00000000000000E+00   1.50339642382885E-09   0.00000000000000E+00   0.00000000000000E+00  -6.48776394546654E-09
     -1.19645827003590E-34  -6.48776394546654E-09   4.02564277829752E-18   0.00000000000000E+00   0.00000000000000E+00
      0.00000000000000E+00   0.00000000000000E+00   0.00000000000000E+00   0.00000000000000E+00   0.00000000000000E+00
     -6.96005231374544E-20   0.00000000000000E+00   0.00000000000000E+00   0.00000000000000E+00   0.00000000000000E+00
     -8.05272069431687E-20   1.21372411741206E-34  -8.05272069431686E-20  -9.21049070695544E-18   1.25895117909844E-01
      1.25895116405602E-01   0.00000000000000E+00   0.00000000000000E+00   6.48776394554707E-09  -1.72658473761643E-36
      6.48776394554707E-09   5.25444845179536E-18
      1.56389671988191E-01
      0.00000000000000E+00   1.54812565149151E-09   0.00000000000000E+00   0.00000000000000E+00  -6.68559241771074E-09
     -1.20193697956369E-34  -6.68559241771074E-09   4.02169726094118E-18   0.00000000000000E+00   0.00000000000000E+00
      0.00000000000000E+00   0.00000000000000E+00   0.00000000000000E+00   0.00000000000000E+00   0.00000000000000E+00
     -1.68696948236191E-19   0.00000000000000E+00   0.00000000000000E+00   0.00000000000000E+00   0.00000000000000E+00
     -1.88408345750712E-20   1.21394625237647E-34  -1.88408345750711E-20  -9.20921027229614E-18   1.34495117909844E-01
      1.34495116361094E-01   0.00000000000000E+00   0.00000000000000E+00   6.68559241772958E-09  -1.20092728127762E-36
      6.68559241772958E-09   5.35620995959117E-18
      1.66389671988191E-01
      0.00000000000000E+00   1.59389941472547E-09   0.00000000000000E+00   0.00000000000000E+00  -6.88817241006999E-09
     -1.10152777255459E-34  -6.88817241006999E-09   4.01775412984434E-18   0.00000000000000E+00   0.00000000000000E+00
      0.00000000000000E+00   0.00000000000000E+00   0.00000000000000E+00   0.00000000000000E+00   0.00000000000000E+00
     -2.67747607793343E-19   0.00000000000000E+00   0.00000000000000E+00   0.00000000000000E+00   0.00000000000000E+00
     -1.34233080373664E-20   1.11049543286583E-34  -1.34233080373663E-20  -9.20810588471341E-18   1.43095117909844E-01
      1.43095116315536E-01   0.00000000000000E+00   0.00000000000000E+00   6.88817241008342E-09  -8.96766031124354E-37
      6.88817241008342E-09   5.45809936266241E-18
      1.76389671988191E-01
      0.00000000000000E+00   1.64070597553932E-09   0.00000000000000E+00   0.00000000000000E+00  -7.09545679287994E-09
     -1.22625142169856E-34  -7.09545679287994E-09   4.01381327832694E-18   0.00000000000000E+00   0.00000000000000E+00
      0.00000000000000E+00   0.00000000000000E+00   0.00000000000000E+00   0.00000000000000E+00   0.00000000000000E+00
     -3.66755605204138E-19   0.00000000000000E+00   0.00000000000000E+00   0.00000000000000E+00   0.00000000000000E+00
     -3.10351171929639E-19   1.23260409877091E-34  -3.10351171929639E-19  -9.20716632237199E-18   1.51695117909844E-01
      1.51695116268949E-01   0.00000000000000E+00   0.00000000000000E+00   7.09545679319029E-09  -6.35267707234577E-37
      7.09545679319029E-09   5.56010864924917E-18
      1.86389671988191E-01
      0.00000000000000E+00   1.68854644367489E-09   0.00000000000000E+00   0.00000000000000E+00  -7.30745682742716E-09