DF-ISE text

Info {
  version   = 1.0
  type      = xyplot
  datasets  = [
    "time"
    "source OuterVoltage" "source InnerVoltage" "source QuasiFermiPotential" "source DisplacementCurrent" "source eCurrent"
    "source hCurrent" "source TotalCurrent" "source Charge" "gate OuterVoltage" "gate InnerVoltage"
    "gate QuasiFermiPotential" "gate DisplacementCurrent" "gate eCurrent" "gate hCurrent" "gate TotalCurrent"
    "gate Charge" "substrate OuterVoltage" "substrate InnerVoltage" "substrate QuasiFermiPotential" "substrate DisplacementCurrent"
    "substrate eCurrent" "substrate hCurrent" "substrate TotalCurrent" "substrate Charge" "drain OuterVoltage"
    "drain InnerVoltage" "drain QuasiFermiPotential" "drain DisplacementCurrent" "drain eCurrent" "drain hCurrent"
    "drain TotalCurrent" "drain Charge" ]
  functions = [
    Time
    OuterVoltage InnerVoltage QuasiFermiPotential DisplacementCurrent eCurrent
    hCurrent TotalCurrent Charge OuterVoltage InnerVoltage
    QuasiFermiPotential DisplacementCurrent eCurrent hCurrent TotalCurrent
    Charge OuterVoltage InnerVoltage QuasiFermiPotential DisplacementCurrent
    eCurrent hCurrent TotalCurrent Charge OuterVoltage
    InnerVoltage QuasiFermiPotential DisplacementCurrent eCurrent hCurrent
    TotalCurrent Charge ]
}

Data {
      0.00000000000000E+00
      0.00000000000000E+00   0.00000000000000E+00   0.00000000000000E+00   0.00000000000000E+00  -9.46957104529875E-22
     -1.56649223871356E-34  -9.46957104530032E-22   4.63807122019581E-18   0.00000000000000E+00   0.00000000000000E+00
      0.00000000000000E+00   0.00000000000000E+00   0.00000000000000E+00   0.00000000000000E+00   0.00000000000000E+00
      2.77044079379165E-18   0.00000000000000E+00   0.00000000000000E+00   0.00000000000000E+00   0.00000000000000E+00
      1.08265154661943E-21   3.64083140981277E-34   1.08265154661979E-21  -1.11576572067145E-17   0.00000000000000E+00
      0.00000000000000E+00   0.00000000000000E+00   0.00000000000000E+00  -1.35694442089555E-22  -2.07433917109920E-34
     -1.35694442089762E-22   3.74914519272698E-18
      0.00000000000000E+00
      0.00000000000000E+00   0.00000000000000E+00   0.00000000000000E+00   0.00000000000000E+00  -1.32965799669375E-20
     -1.62612971001376E-34  -1.32965799669377E-20   4.63628955303786E-18   0.00000000000000E+00   0.00000000000000E+00
      0.00000000000000E+00   0.00000000000000E+00   0.00000000000000E+00   0.00000000000000E+00   0.00000000000000E+00
      2.76446696808283E-18   0.00000000000000E+00   0.00000000000000E+00   0.00000000000000E+00   0.00000000000000E+00
      4.71596190360509E-20   3.50279144973792E-34   4.71596190360512E-20  -1.11486459130655E-17   0.00000000000000E+00
      0.00000000000000E+00   0.00000000000000E+00   0.00000000000000E+00  -3.38630390691133E-20  -1.87666173972415E-34
     -3.38630390691135E-20   3.74788939194474E-18
      1.00000000000000E-03
      0.00000000000000E+00   4.80189586746671E-11   0.00000000000000E+00   0.00000000000000E+00  -2.23419162832745E-10
     -1.71892753839906E-34  -2.23419162832745E-10   4.63600320229336E-18   0.00000000000000E+00   0.00000000000000E+00
      0.00000000000000E+00   0.00000000000000E+00   0.00000000000000E+00   0.00000000000000E+00   0.00000000000000E+00
      2.75441408782528E-18   0.00000000000000E+00   0.00000000000000E+00   0.00000000000000E+00   0.00000000000000E+00
     -3.63585645953865E-18   3.66040005615993E-34  -3.63585645953865E-18  -1.11482175587359E-17   8.60000000000000E-04
      8.59999951553250E-04   0.00000000000000E+00   0.00000000000000E+00   2.23419166468601E-10  -1.94147251776087E-34
      2.23419166468601E-10   3.75780026861721E-18
      2.08666666666667E-03
      0.00000000000000E+00   9.70969391569241E-11   0.00000000000000E+00   0.00000000000000E+00  -4.51751669472406E-10
     -2.07975246954232E-34  -4.51751669472406E-10   4.63569212779598E-18   0.00000000000000E+00   0.00000000000000E+00
      0.00000000000000E+00   0.00000000000000E+00   0.00000000000000E+00   0.00000000000000E+00   0.00000000000000E+00
      2.74349348035458E-18   0.00000000000000E+00   0.00000000000000E+00   0.00000000000000E+00   0.00000000000000E+00
      9.06540152261063E-16   4.03235254486179E-34   9.06540152261063E-16  -1.11477598364753E-17   1.79453333333333E-03
      1.79453323537227E-03   0.00000000000000E+00   0.00000000000000E+00   4.51750762932254E-10  -1.95260007531947E-34
      4.51750762932254E-10   3.76857422832474E-18
      3.28200000000000E-03
      0.00000000000000E+00   1.47410827478954E-10   0.00000000000000E+00   0.00000000000000E+00  -6.85814354928878E-10
     -1.75348521547459E-34  -6.85814354928878E-10   4.63535005690305E-18   0.00000000000000E+00   0.00000000000000E+00
      0.00000000000000E+00   0.00000000000000E+00   0.00000000000000E+00   0.00000000000000E+00   0.00000000000000E+00
      2.73148498074625E-18   0.00000000000000E+00   0.00000000000000E+00   0.00000000000000E+00   0.00000000000000E+00
      3.13082877212544E-20   3.48719691031909E-34   3.13082877212548E-20  -1.11472655459664E-17   2.82252000000000E-03
      2.82251985127919E-03   0.00000000000000E+00   0.00000000000000E+00   6.85814354897570E-10  -1.73371169484450E-34
      6.85814354897570E-10   3.78043050831711E-18
      4.58889777777778E-03
      0.00000000000000E+00   1.98211206109996E-10   0.00000000000000E+00   0.00000000000000E+00  -9.22118115755077E-10
     -1.68865654643800E-34  -9.22118115755077E-10   4.63497619044456E-18   0.00000000000000E+00   0.00000000000000E+00
      0.00000000000000E+00   0.00000000000000E+00   0.00000000000000E+00   0.00000000000000E+00   0.00000000000000E+00
      2.71836059730093E-18   0.00000000000000E+00   0.00000000000000E+00   0.00000000000000E+00   0.00000000000000E+00
      3.99278379739402E-21   3.59192948088508E-34   3.99278379739438E-21  -1.11467359936226E-17   3.94645208888889E-03
      3.94645188891846E-03   0.00000000000000E+00   0.00000000000000E+00   9.22118115751084E-10  -1.90327293444708E-34
      9.22118115751084E-10   3.79339920587717E-18
      6.01777268148148E-03
      0.00000000000000E+00   2.49016088598999E-10   0.00000000000000E+00   0.00000000000000E+00  -1.15841823210211E-09
     -1.98199635162504E-34  -1.15841823210211E-09   4.63456758341853E-18   0.00000000000000E+00   0.00000000000000E+00
      0.00000000000000E+00   0.00000000000000E+00   0.00000000000000E+00   0.00000000000000E+00   0.00000000000000E+00
      2.70401702673608E-18   0.00000000000000E+00   0.00000000000000E+00   0.00000000000000E+00   0.00000000000000E+00
     -3.13098884203393E-21   3.58338446461053E-34  -3.13098884203358E-21  -1.11461698034857E-17   5.17528450607408E-03
      5.17528425485071E-03   0.00000000000000E+00   0.00000000000000E+00   1.15841823210525E-09  -1.60138811298548E-34
      1.15841823210525E-09   3.80758519333111E-18
      7.58000924286420E-03
      0.00000000000000E+00   2.99302322990532E-10   0.00000000000000E+00   0.00000000000000E+00  -1.39228044821243E-09
     -1.68946808961049E-34  -1.39228044821243E-09   4.63412101927274E-18   0.00000000000000E+00   0.00000000000000E+00
      0.00000000000000E+00   0.00000000000000E+00   0.00000000000000E+00   0.00000000000000E+00   0.00000000000000E+00
      2.68834145767565E-18   0.00000000000000E+00   0.00000000000000E+00   0.00000000000000E+00   0.00000000000000E+00
     -1.36195131137628E-20   3.12315667219886E-34  -1.36195131137625E-20  -1.11455657862337E-17   6.51880794886321E-03
      6.51880764691145E-03   0.00000000000000E+00   0.00000000000000E+00   1.39228044822605E-09  -1.43368858258836E-34
      1.39228044822605E-09   3.82310330928530E-18
      9.28805454997597E-03
      0.00000000000000E+00   3.48512696795014E-10   0.00000000000000E+00   0.00000000000000E+00  -1.62111428067294E-09
     -1.71989828314855E-34  -1.62111428067294E-09   4.63363298491355E-18   0.00000000000000E+00   0.00000000000000E+00
      0.00000000000000E+00   0.00000000000000E+00   0.00000000000000E+00   0.00000000000000E+00   0.00000000000000E+00
      2.67121070041313E-18   0.00000000000000E+00   0.00000000000000E+00   0.00000000000000E+00   0.00000000000000E+00
     -3.65710224157077E-21   3.28584187673892E-34  -3.65710224157044E-21  -1.11449230014411E-17   7.98772691297934E-03
      7.98772656138592E-03   0.00000000000000E+00   0.00000000000000E+00   1.62111428067659E-09  -1.56594359359037E-34
      1.62111428067659E-09   3.84007931611446E-18
      1.11555174190848E-02
      0.00000000000000E+00   3.96069005801654E-10   0.00000000000000E+00   0.00000000000000E+00  -1.84223377223821E-09
     -1.73357532580935E-34  -1.84223377223821E-09   4.63309964337589E-18   0.00000000000000E+00   0.00000000000000E+00
      0.00000000000000E+00   0.00000000000000E+00   0.00000000000000E+00   0.00000000000000E+00   0.00000000000000E+00
      2.65249023645855E-18   0.00000000000000E+00   0.00000000000000E+00   0.00000000000000E+00   0.00000000000000E+00
      1.11614938869479E-21   3.40103786545707E-34   1.11614938869513E-21  -1.11442408300048E-17   9.59374498041296E-03
      9.59374458084796E-03   0.00000000000000E+00   0.00000000000000E+00   1.84223377223709E-09  -1.66746253964772E-34
      1.84223377223709E-09   3.85865095017028E-18
      1.31972768226439E-02
      0.00000000000000E+00   4.41390033118988E-10   0.00000000000000E+00   0.00000000000000E+00  -2.05294198916755E-09
     -1.53239820621945E-34  -2.05294198916755E-09   4.63251680389885E-18   0.00000000000000E+00   0.00000000000000E+00
      0.00000000000000E+00   0.00000000000000E+00   0.00000000000000E+00   0.00000000000000E+00   0.00000000000000E+00
      2.63203318021707E-18   0.00000000000000E+00   0.00000000000000E+00   0.00000000000000E+00   0.00000000000000E+00
      4.15725975848448E-21   2.83062375980207E-34   4.15725975848477E-21  -1.11435190576331E-17   1.13496580674737E-02
      1.13496576221936E-02   0.00000000000000E+00   0.00000000000000E+00   2.05294198916339E-09  -1.29822555358263E-34
      2.05294198916339E-09   3.87896907351719E-18
      1.54296004372017E-02
      0.00000000000000E+00   4.83914165508188E-10   0.00000000000000E+00   0.00000000000000E+00  -2.25063649081452E-09
     -1.81803338550020E-34  -2.25063649081452E-09   4.63187988917095E-18   0.00000000000000E+00   0.00000000000000E+00
      0.00000000000000E+00   0.00000000000000E+00   0.00000000000000E+00   0.00000000000000E+00   0.00000000000000E+00
      2.60967914451136E-18   0.00000000000000E+00   0.00000000000000E+00   0.00000000000000E+00   0.00000000000000E+00
      6.56934941429015E-21   3.04574067731925E-34   6.56934941429045E-21  -1.11427579704735E-17   1.32694563759935E-02
      1.32694558878215E-02   0.00000000000000E+00   0.00000000000000E+00   2.25063649080795E-09  -1.22770729181906E-34
      2.25063649080795E-09   3.90119893679112E-18
      1.78702742557850E-02
      0.00000000000000E+00   5.23128230897625E-10   0.00000000000000E+00   0.00000000000000E+00  -2.43294370484441E-09
     -1.60702645731911E-34  -2.43294370484441E-09   4.63118389935863E-18   0.00000000000000E+00   0.00000000000000E+00
      0.00000000000000E+00   0.00000000000000E+00   0.00000000000000E+00   0.00000000000000E+00   0.00000000000000E+00
      2.58525299761027E-18   0.00000000000000E+00   0.00000000000000E+00   0.00000000000000E+00   0.00000000000000E+00
     -5.20285158171387E-20   2.91654912550353E-34  -5.20285158171384E-20  -1.11419584601309E-17   1.53684358599751E-02
      1.53684353322523E-02   0.00000000000000E+00   0.00000000000000E+00   2.43294370489644E-09  -1.30952266818441E-34
      2.43294370489644E-09   3.92552156316203E-18
      2.05387442974361E-02
      0.00000000000000E+00   5.58598197053049E-10   0.00000000000000E+00   0.00000000000000E+00  -2.59786201233214E-09
     -1.83441148318377E-34  -2.59786201233214E-09   4.63042337274773E-18   0.00000000000000E+00   0.00000000000000E+00
      0.00000000000000E+00   0.00000000000000E+00   0.00000000000000E+00   0.00000000000000E+00   0.00000000000000E+00
      2.55856350615620E-18   0.00000000000000E+00   0.00000000000000E+00   0.00000000000000E+00   0.00000000000000E+00
     -2.36895374003616E-20   2.99769452528267E-34  -2.36895374003613E-20  -1.11411221446450E-17   1.76633200957950E-02
      1.76633195323006E-02   0.00000000000000E+00   0.00000000000000E+00   2.59786201235583E-09  -1.16328304209890E-34
      2.59786201235583E-09   3.95213526574115E-18
      2.34562715429746E-02
      0.00000000000000E+00   5.90004160956628E-10   0.00000000000000E+00   0.00000000000000E+00  -2.74392480909876E-09
     -1.84560952606658E-34  -2.74392480909876E-09   4.62959234242819E-18   0.00000000000000E+00   0.00000000000000E+00
      0.00000000000000E+00   0.00000000000000E+00   0.00000000000000E+00   0.00000000000000E+00   0.00000000000000E+00
      2.52940184514996E-18   0.00000000000000E+00   0.00000000000000E+00   0.00000000000000E+00   0.00000000000000E+00
     -1.03421181270864E-20   2.86984630218858E-34  -1.03421181270862E-20  -1.11402514958294E-17   2.01723935269581E-02
      2.01723929317941E-02   0.00000000000000E+00   0.00000000000000E+00   2.74392480910910E-09  -1.02423677612201E-34
      2.74392480910910E-09   3.98125730825127E-18
      2.66461013314300E-02
      0.00000000000000E+00   6.17176705459525E-10   0.00000000000000E+00   0.00000000000000E+00  -2.87036882364355E-09
     -1.83519251361571E-34  -2.87036882364355E-09   4.62868428871427E-18   0.00000000000000E+00   0.00000000000000E+00
      0.00000000000000E+00   0.00000000000000E+00   0.00000000000000E+00   0.00000000000000E+00   0.00000000000000E+00
      2.49753996276318E-18   0.00000000000000E+00   0.00000000000000E+00   0.00000000000000E+00   0.00000000000000E+00
     -3.61884906078394E-20   2.92669791067647E-34  -3.61884906078392E-20  -1.11393499741706E-17   2.29156471450298E-02
      2.29156465224696E-02   0.00000000000000E+00   0.00000000000000E+00   2.87036882367974E-09  -1.09150539706075E-34
      2.87036882367974E-09   4.01312572269319E-18
      3.01336485668079E-02
      0.00000000000000E+00   6.40130230256908E-10   0.00000000000000E+00   0.00000000000000E+00  -2.97728857807762E-09
     -1.84814405527728E-34  -2.97728857807762E-09   4.62769208688445E-18   0.00000000000000E+00   0.00000000000000E+00
      0.00000000000000E+00   0.00000000000000E+00   0.00000000000000E+00   0.00000000000000E+00   0.00000000000000E+00
      2.46272878741401E-18   0.00000000000000E+00   0.00000000000000E+00   0.00000000000000E+00   0.00000000000000E+00
     -3.75478837475736E-20   2.76070283447210E-34  -3.75478837475733E-20  -1.11384221734670E-17   2.59149377674548E-02
      2.59149371217585E-02   0.00000000000000E+00   0.00000000000000E+00   2.97728857811517E-09  -9.12558779194825E-35
      2.97728857811517E-09   4.04800129916851E-18
      3.39467002108211E-02
      0.00000000000000E+00   6.59089532274769E-10   0.00000000000000E+00   0.00000000000000E+00  -3.06575931332707E-09
     -1.94838256375449E-34  -3.06575931332707E-09   4.62660794969493E-18   0.00000000000000E+00   0.00000000000000E+00
      0.00000000000000E+00   0.00000000000000E+00   0.00000000000000E+00   0.00000000000000E+00   0.00000000000000E+00
      2.42469625538746E-18   0.00000000000000E+00   0.00000000000000E+00   0.00000000000000E+00   0.00000000000000E+00
     -5.58984373646594E-20   2.78042422615327E-34  -5.58984373646591E-20  -1.11374739651893E-17   2.91941621813061E-02
      2.91941615165084E-02   0.00000000000000E+00   0.00000000000000E+00   3.06575931338296E-09  -8.32041662398780E-35
      3.06575931338296E-09   4.08616976010695E-18
      3.81156366749421E-02
      0.00000000000000E+00   6.74502557358585E-10   0.00000000000000E+00   0.00000000000000E+00  -3.13789379934107E-09
     -1.80104689070182E-34  -3.13789379934107E-09   4.62542336438408E-18   0.00000000000000E+00   0.00000000000000E+00
      0.00000000000000E+00   0.00000000000000E+00   0.00000000000000E+00   0.00000000000000E+00   0.00000000000000E+00
      2.38314514022984E-18   0.00000000000000E+00   0.00000000000000E+00   0.00000000000000E+00   0.00000000000000E+00
     -3.66850725603816E-20   2.48462605700755E-34  -3.66850725603814E-20  -1.11365126402116E-17   3.27794475404502E-02
      3.27794468601358E-02   0.00000000000000E+00   0.00000000000000E+00   3.13789379937775E-09  -6.83579166305735E-35
      3.13789379937775E-09   4.12794413559763E-18
      4.26736738757145E-02
      0.00000000000000E+00   6.87028879824014E-10   0.00000000000000E+00   0.00000000000000E+00  -3.19678574462256E-09
     -1.79655597123251E-34  -3.19678574462256E-09   4.62412902361469E-18   0.00000000000000E+00   0.00000000000000E+00
      0.00000000000000E+00   0.00000000000000E+00   0.00000000000000E+00   0.00000000000000E+00   0.00000000000000E+00
      2.33775065909074E-18   0.00000000000000E+00   0.00000000000000E+00   0.00000000000000E+00   0.00000000000000E+00
     -1.68094075035217E-19   2.33755785256695E-34  -1.68094075035217E-19  -1.11355470360697E-17   3.66993595331145E-02
      3.66993588402061E-02   0.00000000000000E+00   0.00000000000000E+00   3.19678574479065E-09  -5.41001881334436E-35
      3.19678574479065E-09   4.17366735336421E-18
      4.76571278818923E-02
      0.00000000000000E+00   6.97494259240553E-10   0.00000000000000E+00   0.00000000000000E+00  -3.24629545322532E-09
     -1.73126774905692E-34  -3.24629545322532E-09   4.62271475046144E-18   0.00000000000000E+00   0.00000000000000E+00
      0.00000000000000E+00   0.00000000000000E+00   0.00000000000000E+00   0.00000000000000E+00   0.00000000000000E+00
      2.28815784604663E-18   0.00000000000000E+00   0.00000000000000E+00   0.00000000000000E+00   0.00000000000000E+00
     -3.35669896840128E-19   2.19915763068084E-34  -3.35669896840128E-19  -1.11345876610815E-17   4.09851299784274E-02
      4.09851292750189E-02   0.00000000000000E+00   0.00000000000000E+00   3.24629545356099E-09  -4.67889881623918E-35
      3.24629545356099E-09   4.22371506457344E-18
      5.31057042619801E-02
      0.00000000000000E+00   7.06807956773638E-10   0.00000000000000E+00   0.00000000000000E+00  -3.29066354965552E-09
     -1.98410128832358E-34  -3.29066354965552E-09   4.62116941749914E-18   0.00000000000000E+00   0.00000000000000E+00
      0.00000000000000E+00   0.00000000000000E+00   0.00000000000000E+00   0.00000000000000E+00   0.00000000000000E+00
      2.23397867600462E-18   0.00000000000000E+00   0.00000000000000E+00   0.00000000000000E+00   0.00000000000000E+00
     -7.22349016468057E-21   2.45451813112851E-34  -7.22349016468032E-21  -1.11336468139528E-17   4.56709056653029E-02
      4.56709049525775E-02   0.00000000000000E+00   0.00000000000000E+00   3.29066354966275E-09  -4.70416842804932E-35
      3.29066354966275E-09   4.27849872044898E-18
      5.90264905950087E-02
      0.00000000000000E+00   7.15788412140500E-10   0.00000000000000E+00   0.00000000000000E+00  -3.33369088335110E-09
     -1.90602593632039E-34  -3.33369088335110E-09   4.61949115353267E-18   0.00000000000000E+00   0.00000000000000E+00
      0.00000000000000E+00   0.00000000000000E+00   0.00000000000000E+00   0.00000000000000E+00   0.00000000000000E+00
      2.17514969579884E-18   0.00000000000000E+00   0.00000000000000E+00   0.00000000000000E+00   0.00000000000000E+00
     -5.87664221938125E-20   2.25857575227374E-34  -5.87664221938123E-20  -1.11327438733427E-17   5.07627819117075E-02
      5.07627811900268E-02   0.00000000000000E+00   0.00000000000000E+00   3.33369088340987E-09  -3.52549815953354E-35
      3.33369088340987E-09   4.33810302401118E-18
      6.54604117435666E-02
      0.00000000000000E+00   7.25124901031768E-10   0.00000000000000E+00   0.00000000000000E+00  -3.37856917119245E-09
     -1.33007973512817E-34  -3.37856917119245E-09   4.61766849845563E-18   0.00000000000000E+00   0.00000000000000E+00
      0.00000000000000E+00   0.00000000000000E+00   0.00000000000000E+00   0.00000000000000E+00   0.00000000000000E+00
      2.11127113125326E-18   0.00000000000000E+00   0.00000000000000E+00   0.00000000000000E+00   0.00000000000000E+00
     -2.56307920246940E-20   1.63312221662934E-34  -2.56307920246938E-20  -1.11318936512863E-17   5.62959540994672E-02
      5.62959533684981E-02   0.00000000000000E+00   0.00000000000000E+00   3.37856917121808E-09  -3.03042481501167E-35
      3.37856917121808E-09   4.40295402157740E-18
      7.24519393916661E-02
      0.00000000000000E+00   7.35264770569207E-10   0.00000000000000E+00   0.00000000000000E+00  -3.42737167041908E-09
     -1.70269147353710E-34  -3.42737167041908E-09   4.61568900539568E-18   0.00000000000000E+00   0.00000000000000E+00
      0.00000000000000E+00   0.00000000000000E+00   0.00000000000000E+00   0.00000000000000E+00   0.00000000000000E+00
      2.04190850757934E-18   0.00000000000000E+00   0.00000000000000E+00   0.00000000000000E+00   0.00000000000000E+00
      9.67145512594625E-22   1.94211248770482E-34   9.67145512594820E-22  -1.11311127057674E-17   6.23086678768328E-02
      6.23086671357930E-02   0.00000000000000E+00   0.00000000000000E+00   3.42737167041811E-09  -2.39421014167711E-35
      3.42737167041811E-09   4.47351519279241E-18
      8.00493994359342E-02
      0.00000000000000E+00   7.46467752470880E-10   0.00000000000000E+00   0.00000000000000E+00  -3.48132323454828E-09
     -1.74352415723635E-34  -3.48132323454828E-09   4.61353915745141E-18   0.00000000000000E+00   0.00000000000000E+00
      0.00000000000000E+00   0.00000000000000E+00   0.00000000000000E+00   0.00000000000000E+00   0.00000000000000E+00
      1.96658968249705E-18   0.00000000000000E+00   0.00000000000000E+00   0.00000000000000E+00   0.00000000000000E+00
     -5.57571722100487E-20   1.93439787805760E-34  -5.57571722100485E-20  -1.11304194821743E-17   6.88424835149034E-02
      6.88424827627546E-02   0.00000000000000E+00   0.00000000000000E+00   3.48132323460404E-09  -1.90873720821250E-35
      3.48132323460404E-09   4.55029064222586E-18
      8.83053060173722E-02
      0.00000000000000E+00   7.58847512397221E-10   0.00000000000000E+00   0.00000000000000E+00  -3.54096569746031E-09
     -1.60755559464180E-34  -3.54096569746031E-09   4.61120428246712E-18   0.00000000000000E+00   0.00000000000000E+00
      0.00000000000000E+00   0.00000000000000E+00   0.00000000000000E+00   0.00000000000000E+00   0.00000000000000E+00
      1.88480166189962E-18   0.00000000000000E+00   0.00000000000000E+00   0.00000000000000E+00   0.00000000000000E+00
     -3.36148093747895E-20   1.77912151144889E-34  -3.36148093747893E-20  -1.11298344928848E-17   7.59425631749401E-02
      7.59425624105279E-02   0.00000000000000E+00   0.00000000000000E+00   3.54096569749393E-09  -1.71565916807091E-35
      3.54096569749393E-09   4.63382854851810E-18
      9.72767245025349E-02
      0.00000000000000E+00   7.72435104266922E-10   0.00000000000000E+00   0.00000000000000E+00  -3.60645645235788E-09
     -1.98754184109228E-34  -3.60645645235788E-09   4.60866845148628E-18   0.00000000000000E+00   0.00000000000000E+00
      0.00000000000000E+00   0.00000000000000E+00   0.00000000000000E+00   0.00000000000000E+00   0.00000000000000E+00
      1.79598703917190E-18   0.00000000000000E+00   0.00000000000000E+00   0.00000000000000E+00   0.00000000000000E+00
     -1.88044181127657E-20   2.11732959588206E-34  -1.88044181127655E-20  -1.11293803648766E-17   8.36579830721800E-02
      8.36579822943102E-02   0.00000000000000E+00   0.00000000000000E+00   3.60645645237669E-09  -1.29787754789779E-35
      3.60645645237669E-09   4.72472487421841E-18
      1.07025665923078E-01
      0.00000000000000E+00   7.87285948580751E-10   0.00000000000000E+00   0.00000000000000E+00  -3.67809403365025E-09
     -1.63881305125098E-34  -3.67809403365025E-09   4.60591435595154E-18   0.00000000000000E+00   0.00000000000000E+00
      0.00000000000000E+00   0.00000000000000E+00   0.00000000000000E+00   0.00000000000000E+00   0.00000000000000E+00
      1.69953996992640E-18   0.00000000000000E+00   0.00000000000000E+00   0.00000000000000E+00   0.00000000000000E+00
     -3.42563570660472E-20   1.73428689417366E-34  -3.42563570660470E-20  -1.11290816702005E-17   9.20420726938473E-02
      9.20420719012746E-02   0.00000000000000E+00   0.00000000000000E+00   3.67809403368451E-09  -9.54738429226736E-36
      3.67809403368451E-09   4.82362734432252E-18
      1.17025665923078E-01
      0.00000000000000E+00   8.02612819835227E-10   0.00000000000000E+00   0.00000000000000E+00  -3.75210623303365E-09
     -1.42116989924784E-34  -3.75210623303365E-09   4.60309081788201E-18   0.00000000000000E+00   0.00000000000000E+00
      0.00000000000000E+00   0.00000000000000E+00   0.00000000000000E+00   0.00000000000000E+00   0.00000000000000E+00
      1.60067139689889E-18   0.00000000000000E+00   0.00000000000000E+00   0.00000000000000E+00   0.00000000000000E+00
      1.54641623112029E-20   1.48313730772099E-34   1.54641623112031E-20  -1.11289660608480E-17   1.00642072693847E-01
      1.00642071886119E-01   0.00000000000000E+00   0.00000000000000E+00   3.75210623301819E-09  -6.19674084731479E-36
      3.75210623301819E-09   4.92520384606709E-18
      1.27025665923078E-01
      0.00000000000000E+00   8.18067070209153E-10   0.00000000000000E+00   0.00000000000000E+00  -3.82680883242577E-09
     -1.65954765316487E-34  -3.82680883242577E-09   4.60026865302760E-18   0.00000000000000E+00   0.00000000000000E+00
      0.00000000000000E+00   0.00000000000000E+00   0.00000000000000E+00   0.00000000000000E+00   0.00000000000000E+00
      1.50185886511003E-18   0.00000000000000E+00   0.00000000000000E+00   0.00000000000000E+00   0.00000000000000E+00
      1.25243625752670E-20   1.71213927138954E-34   1.25243625752671E-20  -1.11290252168992E-17   1.09242072693847E-01
      1.09242071870859E-01   0.00000000000000E+00   0.00000000000000E+00   3.82680883241325E-09  -5.25916182246729E-36
      3.82680883241325E-09   5.02689769876158E-18
      1.37025665923078E-01
      0.00000000000000E+00   8.33681408559411E-10   0.00000000000000E+00   0.00000000000000E+00  -3.90235385314493E-09
     -1.56543991505059E-34  -3.90235385314493E-09   4.59744775459637E-18   0.00000000000000E+00   0.00000000000000E+00
      0.00000000000000E+00   0.00000000000000E+00   0.00000000000000E+00   0.00000000000000E+00   0.00000000000000E+00
      1.40309636897726E-18   0.00000000000000E+00   0.00000000000000E+00   0.00000000000000E+00   0.00000000000000E+00
     -1.68718380719261E-20   1.60469959613356E-34  -1.68718380719259E-20  -1.11292427313826E-17   1.17842072693847E-01
      1.17842071855444E-01   0.00000000000000E+00   0.00000000000000E+00   3.90235385316181E-09  -3.92596810829688E-36
      3.90235385316181E-09   5.12869860780898E-18
      1.47025665923078E-01
      0.00000000000000E+00   8.49476323194076E-10   0.00000000000000E+00   0.00000000000000E+00  -3.97883744183652E-09
     -1.73654159065100E-34  -3.97883744183652E-09   4.59462802779802E-18   0.00000000000000E+00   0.00000000000000E+00
      0.00000000000000E+00   0.00000000000000E+00   0.00000000000000E+00   0.00000000000000E+00   0.00000000000000E+00
      1.30437870545888E-18   0.00000000000000E+00   0.00000000000000E+00   0.00000000000000E+00   0.00000000000000E+00
      2.12106693470277E-21   1.76725567284089E-34   2.12106693470294E-21  -1.11296039913492E-17   1.26442072693847E-01
      1.26442071839841E-01   0.00000000000000E+00   0.00000000000000E+00   3.97883744183440E-09  -3.07140821898872E-36
      3.97883744183440E-09   5.23059725809230E-18
      1.57025665923078E-01
      0.00000000000000E+00   8.65460578353874E-10   0.00000000000000E+00   0.00000000000000E+00  -4.05630002685514E-09
     -1.68734289330298E-34  -4.05630002685514E-09   4.59180938646029E-18   0.00000000000000E+00   0.00000000000000E+00
      0.00000000000000E+00   0.00000000000000E+00   0.00000000000000E+00   0.00000000000000E+00   0.00000000000000E+00
      1.20570132527821E-18   0.00000000000000E+00   0.00000000000000E+00   0.00000000000000E+00   0.00000000000000E+00
     -2.50068185359417E-20   1.71030216317277E-34  -2.50068185359415E-20  -1.11300959072700E-17   1.35042072693847E-01
      1.35042071824042E-01   0.00000000000000E+00   0.00000000000000E+00   4.05630002688015E-09  -2.29592698697853E-36
      4.05630002688015E-09   5.33258519553146E-18
      1.67025665923078E-01
      0.00000000000000E+00   8.81635510119793E-10   0.00000000000000E+00   0.00000000000000E+00  -4.13474730392882E-09
     -1.73496202672103E-34  -4.13474730392882E-09   4.58899175201308E-18   0.00000000000000E+00   0.00000000000000E+00
      0.00000000000000E+00   0.00000000000000E+00   0.00000000000000E+00   0.00000000000000E+00   0.00000000000000E+00
      1.10706023571631E-18   0.00000000000000E+00   0.00000000000000E+00   0.00000000000000E+00   0.00000000000000E+00
      9.82871566243083E-21   1.75203538170574E-34   9.82871566243100E-21  -1.11307067231206E-17   1.43642072693847E-01
      1.43642071808049E-01   0.00000000000000E+00   0.00000000000000E+00   4.13474730391899E-09  -1.70733549847154E-36
      4.13474730391899E-09   5.43465473539118E-18
      1.77025665923078E-01
      0.00000000000000E+00   8.97998986134302E-10   0.00000000000000E+00   0.00000000000000E+00  -4.21416919403096E-09
     -1.73066100455650E-34  -4.21416919403096E-09   4.58617505432704E-18   0.00000000000000E+00   0.00000000000000E+00
      0.00000000000000E+00   0.00000000000000E+00   0.00000000000000E+00   0.00000000000000E+00   0.00000000000000E+00
      1.00845196332605E-18   0.00000000000000E+00   0.00000000000000E+00   0.00000000000000E+00   0.00000000000000E+00
      1.00211853277967E-20   1.74286776039786E-34   1.00211853277969E-20  -1.11314259067039E-17   1.52242072693847E-01
      1.52242071791868E-01   0.00000000000000E+00   0.00000000000000E+00   4.21416919402094E-09  -1.22067558413596E-36
      4.21416919402094E-09   5.53679888905082E-18
      1.87025665923078E-01
      0.00000000000000E+00   9.14548617567774E-10   0.00000000000000E+00   0.00000000000000E+00  -4.29455520965931E-09