DF-ISE text

Info {
  version   = 1.0
  type      = xyplot
  datasets  = [
    "time"
    "source OuterVoltage" "source InnerVoltage" "source QuasiFermiPotential" "source DisplacementCurrent" "source eCurrent"
    "source hCurrent" "source TotalCurrent" "source Charge" "gate OuterVoltage" "gate InnerVoltage"
    "gate QuasiFermiPotential" "gate DisplacementCurrent" "gate eCurrent" "gate hCurrent" "gate TotalCurrent"
    "gate Charge" "substrate OuterVoltage" "substrate InnerVoltage" "substrate QuasiFermiPotential" "substrate DisplacementCurrent"
    "substrate eCurrent" "substrate hCurrent" "substrate TotalCurrent" "substrate Charge" "drain OuterVoltage"
    "drain InnerVoltage" "drain QuasiFermiPotential" "drain DisplacementCurrent" "drain eCurrent" "drain hCurrent"
    "drain TotalCurrent" "drain Charge" ]
  functions = [
    Time
    OuterVoltage InnerVoltage QuasiFermiPotential DisplacementCurrent eCurrent
    hCurrent TotalCurrent Charge OuterVoltage InnerVoltage
    QuasiFermiPotential DisplacementCurrent eCurrent hCurrent TotalCurrent
    Charge OuterVoltage InnerVoltage QuasiFermiPotential DisplacementCurrent
    eCurrent hCurrent TotalCurrent Charge OuterVoltage
    InnerVoltage QuasiFermiPotential DisplacementCurrent eCurrent hCurrent
    TotalCurrent Charge ]
}

Data {
      0.00000000000000E+00
      0.00000000000000E+00   0.00000000000000E+00   0.00000000000000E+00   0.00000000000000E+00  -2.42315203758860E-21
      5.23174461655556E-34  -2.42315203758807E-21   5.42970923092957E-18   0.00000000000000E+00   0.00000000000000E+00
      0.00000000000000E+00   0.00000000000000E+00   0.00000000000000E+00   0.00000000000000E+00   0.00000000000000E+00
      4.46555920799375E-18   0.00000000000000E+00   0.00000000000000E+00   0.00000000000000E+00   0.00000000000000E+00
      3.03969947792847E-21  -1.05808536479975E-33   3.03969947792741E-21  -1.45025237140555E-17   0.00000000000000E+00
      0.00000000000000E+00   0.00000000000000E+00   0.00000000000000E+00  -6.16547440339862E-22   5.34910903144189E-34
     -6.16547440339327E-22   4.60725527513215E-18
      0.00000000000000E+00
      0.00000000000000E+00   0.00000000000000E+00   0.00000000000000E+00   0.00000000000000E+00   2.16390020720677E-19
      5.15930240714090E-34   2.16390020720678E-19   5.42766103263925E-18   0.00000000000000E+00   0.00000000000000E+00
      0.00000000000000E+00   0.00000000000000E+00   0.00000000000000E+00   0.00000000000000E+00   0.00000000000000E+00
      4.45837955918880E-18   0.00000000000000E+00   0.00000000000000E+00   0.00000000000000E+00   0.00000000000000E+00
     -9.41853119302094E-20  -1.02037901863970E-33  -9.41853119302104E-20  -1.44916350345782E-17   0.00000000000000E+00
      0.00000000000000E+00   0.00000000000000E+00   0.00000000000000E+00  -1.22204708790468E-19   5.04448777925611E-34
     -1.22204708790468E-19   4.60559444275017E-18
      1.00000000000000E-03
      0.00000000000000E+00   1.87621071267911E-11   0.00000000000000E+00   0.00000000000000E+00  -8.89507928692532E-11
      5.35802473489634E-34  -8.89507928692532E-11   5.42739726685416E-18   0.00000000000000E+00   0.00000000000000E+00
      0.00000000000000E+00   0.00000000000000E+00   0.00000000000000E+00   0.00000000000000E+00   0.00000000000000E+00
      4.44737502184624E-18   0.00000000000000E+00   0.00000000000000E+00   0.00000000000000E+00   0.00000000000000E+00
     -3.71321342747128E-19  -1.07184119560482E-33  -3.71321342747129E-19  -1.44911786248344E-17   8.60000000000000E-04
      8.59999981155798E-04   0.00000000000000E+00   0.00000000000000E+00   8.89507932405745E-11   5.36038722115190E-34
      8.89507932405745E-11   4.61640633613405E-18
      2.08666666666667E-03
      0.00000000000000E+00   3.79950111892932E-11   0.00000000000000E+00   0.00000000000000E+00  -1.80121759932185E-10
      5.40869133380942E-34  -1.80121759932185E-10   5.42711069009945E-18   0.00000000000000E+00   0.00000000000000E+00
      0.00000000000000E+00   0.00000000000000E+00   0.00000000000000E+00   0.00000000000000E+00   0.00000000000000E+00
      4.43541941978633E-18   0.00000000000000E+00   0.00000000000000E+00   0.00000000000000E+00   0.00000000000000E+00
     -7.19411870945708E-20  -1.04691833542734E-33  -7.19411870945719E-20  -1.44906895212719E-17   1.79453333333333E-03
      1.79453329517240E-03   0.00000000000000E+00   0.00000000000000E+00   1.80121760004126E-10   5.06049202046397E-34
      1.80121760004126E-10   4.62815941138611E-18
      3.27475555555556E-03
      0.00000000000000E+00   5.76679295704068E-11   0.00000000000000E+00   0.00000000000000E+00  -2.73363029014214E-10
      5.29161440953787E-34  -2.73363029014214E-10   5.42679742356627E-18   0.00000000000000E+00   0.00000000000000E+00
      0.00000000000000E+00   0.00000000000000E+00   0.00000000000000E+00   0.00000000000000E+00   0.00000000000000E+00
      4.42235108574662E-18   0.00000000000000E+00   0.00000000000000E+00   0.00000000000000E+00   0.00000000000000E+00
      2.17921218384985E-19  -1.02646479254246E-33   2.17921218384984E-19  -1.44901628496427E-17   2.81628977777778E-03
      2.81628971985847E-03   0.00000000000000E+00   0.00000000000000E+00   2.73363028796293E-10   4.97303351588675E-34
      2.73363028796293E-10   4.64101434032980E-18
      4.57373274074074E-03
      0.00000000000000E+00   7.76233436691091E-11   0.00000000000000E+00   0.00000000000000E+00  -3.67924838574542E-10
      5.54434692856432E-34  -3.67924838574542E-10   5.42645498628569E-18   0.00000000000000E+00   0.00000000000000E+00
      0.00000000000000E+00   0.00000000000000E+00   0.00000000000000E+00   0.00000000000000E+00   0.00000000000000E+00
      4.40806671322478E-18   0.00000000000000E+00   0.00000000000000E+00   0.00000000000000E+00   0.00000000000000E+00
     -2.73085597697508E-19  -1.02418663149299E-33  -2.73085597697509E-19  -1.44895965584035E-17   3.93341015703704E-03
      3.93341007907594E-03   0.00000000000000E+00   0.00000000000000E+00   3.67924838847627E-10   4.69751938636555E-34
      3.67924838847627E-10   4.65507485889300E-18
      5.99394779654321E-03
      0.00000000000000E+00   9.76856309049391E-11   0.00000000000000E+00   0.00000000000000E+00  -4.62972427414158E-10
      5.43142099719556E-34  -4.62972427414158E-10   5.42608066725494E-18   0.00000000000000E+00   0.00000000000000E+00
      0.00000000000000E+00   0.00000000000000E+00   0.00000000000000E+00   0.00000000000000E+00   0.00000000000000E+00
      4.39245344364179E-18   0.00000000000000E+00   0.00000000000000E+00   0.00000000000000E+00   0.00000000000000E+00
      2.74638482315678E-19  -1.04126442812425E-33   2.74638482315677E-19  -1.44889886534615E-17   5.15479510502716E-03
      5.15479500691724E-03   0.00000000000000E+00   0.00000000000000E+00   4.62972427139519E-10   4.98122328404691E-34
      4.62972427139519E-10   4.67045454256485E-18
      7.54671625755391E-03
      0.00000000000000E+00   1.17660439686113E-10   0.00000000000000E+00   0.00000000000000E+00  -5.57583235541150E-10
      5.19268259795997E-34  -5.57583235541150E-10   5.42567150417077E-18   0.00000000000000E+00   0.00000000000000E+00
      0.00000000000000E+00   0.00000000000000E+00   0.00000000000000E+00   0.00000000000000E+00   0.00000000000000E+00
      4.37538798754740E-18   0.00000000000000E+00   0.00000000000000E+00   0.00000000000000E+00   0.00000000000000E+00
      2.71813595360575E-19  -9.67929771001274E-34   2.71813595360574E-19  -1.44883372421871E-17   6.49017598149636E-03
      6.49017586332574E-03   0.00000000000000E+00   0.00000000000000E+00   5.57583235269336E-10   4.48661511205277E-34
      5.57583235269336E-10   4.68727775046892E-18
      9.24440977492561E-03
      0.00000000000000E+00   1.37336714057668E-10   0.00000000000000E+00   0.00000000000000E+00  -6.50756636750640E-10
      5.35808819224234E-34  -6.50756636750640E-10   5.42522426018159E-18   0.00000000000000E+00   0.00000000000000E+00
      0.00000000000000E+00   0.00000000000000E+00   0.00000000000000E+00   0.00000000000000E+00   0.00000000000000E+00
      4.35673566516648E-18   0.00000000000000E+00   0.00000000000000E+00   0.00000000000000E+00   0.00000000000000E+00
      9.06123604034894E-21  -9.53001993524038E-34   9.06123604034799E-21  -1.44876405866013E-17   7.95019240643603E-03
      7.95019226850468E-03   0.00000000000000E+00   0.00000000000000E+00   6.50756636741578E-10   4.17193174299804E-34
      6.50756636741578E-10   4.70568066125328E-18
      1.11005546872520E-02
      0.00000000000000E+00   1.56490748687253E-10   0.00000000000000E+00   0.00000000000000E+00  -7.41433553853957E-10
      5.65532673614473E-34  -7.41433553853957E-10   5.42473539846057E-18   0.00000000000000E+00   0.00000000000000E+00
      0.00000000000000E+00   0.00000000000000E+00   0.00000000000000E+00   0.00000000000000E+00   0.00000000000000E+00
      4.33634935842447E-18   0.00000000000000E+00   0.00000000000000E+00   0.00000000000000E+00   0.00000000000000E+00
      2.90290275135571E-20  -9.40327861468240E-34   2.90290275135561E-20  -1.44868971664111E-17   9.54647703103672E-03
      9.54647687386940E-03   0.00000000000000E+00   0.00000000000000E+00   7.41433553824928E-10   3.74795187853767E-34
      7.41433553824928E-10   4.72581240952605E-18
      1.31299397913955E-02
      0.00000000000000E+00   1.74892514772997E-10   0.00000000000000E+00   0.00000000000000E+00  -8.28526750246305E-10
      5.41968343612237E-34  -8.28526750246305E-10   5.42420105440170E-18   0.00000000000000E+00   0.00000000000000E+00
      0.00000000000000E+00   0.00000000000000E+00   0.00000000000000E+00   0.00000000000000E+00   0.00000000000000E+00
      4.31406836571926E-18   0.00000000000000E+00   0.00000000000000E+00   0.00000000000000E+00   0.00000000000000E+00
     -1.00765268308256E-19  -9.20647648511559E-34  -1.00765268308257E-19  -1.44861057528912E-17   1.12917482206002E-02
      1.12917480449524E-02   0.00000000000000E+00   0.00000000000000E+00   8.28526750347071E-10   3.78679304899322E-34
      8.28526750347071E-10   4.74783633277032E-18
      1.53487341719258E-02
      0.00000000000000E+00   1.92313312416971E-10   0.00000000000000E+00   0.00000000000000E+00  -9.10957241170316E-10
      5.34453206526224E-34  -9.10957241170316E-10   5.42361700522216E-18   0.00000000000000E+00   0.00000000000000E+00
      0.00000000000000E+00   0.00000000000000E+00   0.00000000000000E+00   0.00000000000000E+00   0.00000000000000E+00
      4.28971715204038E-18   0.00000000000000E+00   0.00000000000000E+00   0.00000000000000E+00   0.00000000000000E+00
      2.47133110476401E-20  -8.74252104943483E-34   2.47133110476392E-20  -1.44852654966934E-17   1.31999113878562E-02
      1.31999111947132E-02   0.00000000000000E+00   0.00000000000000E+00   9.10957241145603E-10   3.39798898417259E-34
      9.10957241145603E-10   4.77193133943088E-18
      1.77746160279722E-02
      0.00000000000000E+00   2.08535889801986E-10   0.00000000000000E+00   0.00000000000000E+00  -9.87703099677532E-10
      5.30795634492687E-34  -9.87703099677532E-10   5.42297863667289E-18   0.00000000000000E+00   0.00000000000000E+00
      0.00000000000000E+00   0.00000000000000E+00   0.00000000000000E+00   0.00000000000000E+00   0.00000000000000E+00
      4.26310398121434E-18   0.00000000000000E+00   0.00000000000000E+00   0.00000000000000E+00   0.00000000000000E+00
      7.64184923471131E-20  -8.64626452161524E-34   7.64184923471122E-20  -1.44843760269644E-17   1.52861697840561E-02
      1.52861695746210E-02   0.00000000000000E+00   0.00000000000000E+00   9.87703099601113E-10   3.33830817668837E-34
      9.87703099601113E-10   4.79829340907719E-18
      2.04269135239163E-02
      0.00000000000000E+00   2.23366205007451E-10   0.00000000000000E+00   0.00000000000000E+00  -1.05785500677648E-09
      5.76949728708652E-34  -1.05785500677648E-09   5.42228090663292E-18   0.00000000000000E+00   0.00000000000000E+00
      0.00000000000000E+00   0.00000000000000E+00   0.00000000000000E+00   0.00000000000000E+00   0.00000000000000E+00
      4.23401942198756E-18   0.00000000000000E+00   0.00000000000000E+00   0.00000000000000E+00   0.00000000000000E+00
      2.31954049415934E-20  -8.84312348083031E-34   2.31954049415925E-20  -1.44834375668415E-17   1.75671456305680E-02
      1.75671454062386E-02   0.00000000000000E+00   0.00000000000000E+00   1.05785500675329E-09   3.07362619374380E-34
      1.05785500675329E-09   4.82713723822098E-18
      2.33267587861485E-02
      0.00000000000000E+00   2.36646854035070E-10   0.00000000000000E+00   0.00000000000000E+00  -1.12068003658532E-09
      5.04734995424163E-34  -1.12068003658532E-09   5.42151830521872E-18   0.00000000000000E+00   0.00000000000000E+00
      0.00000000000000E+00   0.00000000000000E+00   0.00000000000000E+00   0.00000000000000E+00   0.00000000000000E+00
      4.20223471261318E-18   0.00000000000000E+00   0.00000000000000E+00   0.00000000000000E+00   0.00000000000000E+00
      5.53227929327970E-20  -7.77613523592716E-34   5.53227929327963E-20  -1.44824510618911E-17   2.00610125560877E-02
      2.00610123184200E-02   0.00000000000000E+00   0.00000000000000E+00   1.12068003653000E-09   2.72878528168552E-34
      1.12068003653000E-09   4.85869804405912E-18
      2.64972562728556E-02
      0.00000000000000E+00   2.48271328688306E-10   0.00000000000000E+00   0.00000000000000E+00  -1.17568916748414E-09
      5.39982752586589E-34  -1.17568916748414E-09   5.42068481111162E-18   0.00000000000000E+00   0.00000000000000E+00
      0.00000000000000E+00   0.00000000000000E+00   0.00000000000000E+00   0.00000000000000E+00   0.00000000000000E+00
      4.16749997155930E-18   0.00000000000000E+00   0.00000000000000E+00   0.00000000000000E+00   0.00000000000000E+00
      1.85493207050162E-21  -7.93280468823443E-34   1.85493207050082E-21  -1.44814183243488E-17   2.27876403946559E-02
      2.27876401453128E-02   0.00000000000000E+00   0.00000000000000E+00   1.17568916748229E-09   2.53297716236854E-34
      1.17568916748229E-09   4.89323354167784E-18
      2.99636668583222E-02
      0.00000000000000E+00   2.58198161474705E-10   0.00000000000000E+00   0.00000000000000E+00  -1.22270420023397E-09
      5.27166483217905E-34  -1.22270420023397E-09   5.41977384370212E-18   0.00000000000000E+00   0.00000000000000E+00
      0.00000000000000E+00   0.00000000000000E+00   0.00000000000000E+00   0.00000000000000E+00   0.00000000000000E+00
      4.12954223751394E-18   0.00000000000000E+00   0.00000000000000E+00   0.00000000000000E+00   0.00000000000000E+00
      1.82054106182485E-19  -7.52728866077607E-34   1.82054106182484E-19  -1.44803421908887E-17   2.57687534981571E-02
      2.57687532388433E-02   0.00000000000000E+00   0.00000000000000E+00   1.22270420005192E-09   2.25562382859702E-34
      1.22270420005192E-09   4.93102610967265E-18
      3.37536090984323E-02
      0.00000000000000E+00   2.66463606681903E-10   0.00000000000000E+00   0.00000000000000E+00  -1.26191668651793E-09
      5.41486685563492E-34  -1.26191668651793E-09   5.41877821067666E-18   0.00000000000000E+00   0.00000000000000E+00
      0.00000000000000E+00   0.00000000000000E+00   0.00000000000000E+00   0.00000000000000E+00   0.00000000000000E+00
      4.08806332218032E-18   0.00000000000000E+00   0.00000000000000E+00   0.00000000000000E+00   0.00000000000000E+00
     -6.74444632859080E-19  -7.47942221702383E-34  -6.74444632859081E-19  -1.44792266945200E-17   2.90281038246517E-02
      2.90281035570361E-02   0.00000000000000E+00   0.00000000000000E+00   1.26191668719237E-09   2.06455536138891E-34
      1.26191668719237E-09   4.97238516166294E-18
      3.78972792809526E-02
      0.00000000000000E+00   2.73189981180230E-10   0.00000000000000E+00   0.00000000000000E+00  -1.29392675524281E-09
      5.12532110986417E-34  -1.29392675524281E-09   5.41769005062560E-18   0.00000000000000E+00   0.00000000000000E+00
      0.00000000000000E+00   0.00000000000000E+00   0.00000000000000E+00   0.00000000000000E+00   0.00000000000000E+00
      4.04273745637893E-18   0.00000000000000E+00   0.00000000000000E+00   0.00000000000000E+00   0.00000000000000E+00
     -2.95393148436588E-19  -6.95931179385891E-34  -2.95393148436589E-19  -1.44780772480530E-17   3.25916601816192E-02
      3.25916599072483E-02   0.00000000000000E+00   0.00000000000000E+00   1.29392675553820E-09   1.83399068399474E-34
      1.29392675553820E-09   5.01764974104843E-18
      4.24276920138415E-02
      0.00000000000000E+00   2.78586960002449E-10   0.00000000000000E+00   0.00000000000000E+00  -1.31974690633484E-09
      5.43075361969258E-34  -1.31974690633484E-09   5.41650077028949E-18   0.00000000000000E+00   0.00000000000000E+00
      0.00000000000000E+00   0.00000000000000E+00   0.00000000000000E+00   0.00000000000000E+00   0.00000000000000E+00
      3.99320870870692E-18   0.00000000000000E+00   0.00000000000000E+00   0.00000000000000E+00   0.00000000000000E+00
     -1.45852341336566E-18  -7.03761304805432E-34  -1.45852341336566E-18  -1.44769008378914E-17   3.64878151319037E-02
      3.64878148521145E-02   0.00000000000000E+00   0.00000000000000E+00   1.31974690779336E-09   1.60685942836173E-34
      1.31974690779336E-09   5.06719135889499E-18
      4.73809432684667E-02
      0.00000000000000E+00   2.82941205203518E-10   0.00000000000000E+00   0.00000000000000E+00  -1.34075026013548E-09
      5.52272212921468E-34  -1.34075026013548E-09   5.41520097599167E-18   0.00000000000000E+00   0.00000000000000E+00
      0.00000000000000E+00   0.00000000000000E+00   0.00000000000000E+00   0.00000000000000E+00   0.00000000000000E+00
      3.93908815216616E-18   0.00000000000000E+00   0.00000000000000E+00   0.00000000000000E+00   0.00000000000000E+00
     -2.19575192843230E-18  -6.91265109854394E-34  -2.19575192843230E-18  -1.44757062215096E-17   4.07476112108814E-02
      4.07476109267248E-02   0.00000000000000E+00   0.00000000000000E+00   1.34075026233123E-09   1.38992896932927E-34
      1.34075026233123E-09   5.12141709335173E-18
      5.27964979735236E-02
      0.00000000000000E+00   2.86592086338560E-10   0.00000000000000E+00   0.00000000000000E+00  -1.35855300854721E-09
      5.33893118948134E-34  -1.35855300854721E-09   5.41378039893365E-18   0.00000000000000E+00   0.00000000000000E+00
      0.00000000000000E+00   0.00000000000000E+00   0.00000000000000E+00   0.00000000000000E+00   0.00000000000000E+00
      3.87995075823660E-18   0.00000000000000E+00   0.00000000000000E+00   0.00000000000000E+00   0.00000000000000E+00
     -3.03026276116107E-18  -6.48171010693669E-34  -3.03026276116107E-18  -1.44745041309047E-17   4.54049882572303E-02
      4.54049879694184E-02   0.00000000000000E+00   0.00000000000000E+00   1.35855301157747E-09   1.14277891745536E-34
      1.35855301157747E-09   5.18077297373439E-18
      5.87175044510525E-02
      0.00000000000000E+00   2.89894492284932E-10   0.00000000000000E+00   0.00000000000000E+00  -1.37483936787942E-09
      5.58538120403280E-34  -1.37483936787942E-09   5.41222781407472E-18   0.00000000000000E+00   0.00000000000000E+00
      0.00000000000000E+00   0.00000000000000E+00   0.00000000000000E+00   0.00000000000000E+00   0.00000000000000E+00
      3.81533200729555E-18   0.00000000000000E+00   0.00000000000000E+00   0.00000000000000E+00   0.00000000000000E+00
     -3.59065189671561E-18  -6.52477445102696E-34  -3.59065189671561E-18  -1.44733074952371E-17   5.04970538279052E-02
      5.04970535367959E-02   0.00000000000000E+00   0.00000000000000E+00   1.37483937147008E-09   9.39393246994162E-35
      1.37483937147008E-09   5.24574767386683E-18
      6.51911381998174E-02
      0.00000000000000E+00   2.93169486234781E-10   0.00000000000000E+00   0.00000000000000E+00  -1.39112790128310E-09
      5.45331619814244E-34  -1.39112790128310E-09   5.41053095239638E-18   0.00000000000000E+00   0.00000000000000E+00
      0.00000000000000E+00   0.00000000000000E+00   0.00000000000000E+00   0.00000000000000E+00   0.00000000000000E+00
      3.74472418787165E-18   0.00000000000000E+00   0.00000000000000E+00   0.00000000000000E+00   0.00000000000000E+00
      1.81118423671764E-19  -6.22763287387920E-34   1.81118423671763E-19  -1.44721316751437E-17   5.60643788518430E-02
      5.60643785574739E-02   0.00000000000000E+00   0.00000000000000E+00   1.39112790110198E-09   7.74316675736761E-35
      1.39112790110198E-09   5.31687653487568E-18
      7.22258202068086E-02
      0.00000000000000E+00   2.96627956709300E-10   0.00000000000000E+00   0.00000000000000E+00  -1.40840184142201E-09
      5.55762664077230E-34  -1.40840184142201E-09   5.40868771174945E-18   0.00000000000000E+00   0.00000000000000E+00
      0.00000000000000E+00   0.00000000000000E+00   0.00000000000000E+00   0.00000000000000E+00   0.00000000000000E+00
      3.66804266723974E-18   0.00000000000000E+00   0.00000000000000E+00   0.00000000000000E+00   0.00000000000000E+00
      9.35367335973379E-20  -6.21303422521006E-34   9.35367335973373E-20  -1.44710012032879E-17   6.21142053778554E-02
      6.21142050800534E-02   0.00000000000000E+00   0.00000000000000E+00   1.40840184132848E-09   6.55407584437765E-35
      1.40840184132848E-09   5.39427082429867E-18
      7.98701746544057E-02
      0.00000000000000E+00   3.00398523728704E-10   0.00000000000000E+00   0.00000000000000E+00  -1.42726106599785E-09
      5.31564104167813E-34  -1.42726106599785E-09   5.40668546007680E-18   0.00000000000000E+00   0.00000000000000E+00
      0.00000000000000E+00   0.00000000000000E+00   0.00000000000000E+00   0.00000000000000E+00   0.00000000000000E+00
      3.58476463576604E-18   0.00000000000000E+00   0.00000000000000E+00   0.00000000000000E+00   0.00000000000000E+00
     -1.55031235501791E-19  -5.85916375978567E-34  -1.55031235501792E-19  -1.44699352707256E-17   6.86883502027889E-02
      6.86883499012526E-02   0.00000000000000E+00   0.00000000000000E+00   1.42726106615288E-09   5.43522718107535E-35
      1.42726106615288E-09   5.47848517488276E-18
      8.81770398207946E-02
      0.00000000000000E+00   3.04555613228755E-10   0.00000000000000E+00   0.00000000000000E+00  -1.44806397716664E-09
      5.41902200340600E-34  -1.44806397716664E-09   5.40451047449094E-18   0.00000000000000E+00   0.00000000000000E+00
      0.00000000000000E+00   0.00000000000000E+00   0.00000000000000E+00   0.00000000000000E+00   0.00000000000000E+00
      3.49432205200205E-18   0.00000000000000E+00   0.00000000000000E+00   0.00000000000000E+00   0.00000000000000E+00
      1.46285947098868E-21  -5.82158407028929E-34   1.46285947098810E-21  -1.44689556109237E-17   7.58322542458833E-02
      7.58322539402372E-02   0.00000000000000E+00   0.00000000000000E+00   1.44806397716518E-09   4.02562066883292E-35
      1.44806397716518E-09   5.57012308443071E-18
      9.72038333016038E-02
      0.00000000000000E+00   3.09135096675224E-10   0.00000000000000E+00   0.00000000000000E+00  -1.47099156029740E-09
      4.95910909434041E-34  -1.47099156029740E-09   5.40214785002355E-18   0.00000000000000E+00   0.00000000000000E+00
      0.00000000000000E+00   0.00000000000000E+00   0.00000000000000E+00   0.00000000000000E+00   0.00000000000000E+00
      3.39609777510698E-18   0.00000000000000E+00   0.00000000000000E+00   0.00000000000000E+00   0.00000000000000E+00
     -3.03302783510379E-19  -5.24944844145145E-34  -3.03302783510379E-19  -1.44680867188685E-17   8.35952966393793E-02
      8.35952963292087E-02   0.00000000000000E+00   0.00000000000000E+00   1.47099156060070E-09   2.90339347111045E-35
      1.47099156060070E-09   5.66984109373791E-18
      1.07012948884083E-01
      0.00000000000000E+00   3.14142040971578E-10   0.00000000000000E+00   0.00000000000000E+00  -1.49608245570333E-09
      5.08885509168751E-34  -1.49608245570333E-09   5.39958139741335E-18   0.00000000000000E+00   0.00000000000000E+00
      0.00000000000000E+00   0.00000000000000E+00   0.00000000000000E+00   0.00000000000000E+00   0.00000000000000E+00
      3.28942129965898E-18   0.00000000000000E+00   0.00000000000000E+00   0.00000000000000E+00   0.00000000000000E+00
     -2.79094820531078E-20  -5.32509807406070E-34  -2.79094820531084E-20  -1.44673559848574E-17   9.20311360403115E-02
      9.20311357251965E-02   0.00000000000000E+00   0.00000000000000E+00   1.49608245573124E-09   2.36242982373192E-35
      1.49608245573124E-09   5.77835328778500E-18
      1.17012948884083E-01
      0.00000000000000E+00   3.19260132030087E-10   0.00000000000000E+00   0.00000000000000E+00  -1.52176668805302E-09
      5.40597101746475E-34  -1.52176668805302E-09   5.39696591643125E-18   0.00000000000000E+00   0.00000000000000E+00
      0.00000000000000E+00   0.00000000000000E+00   0.00000000000000E+00   0.00000000000000E+00   0.00000000000000E+00
      3.18072752914825E-18   0.00000000000000E+00   0.00000000000000E+00   0.00000000000000E+00   0.00000000000000E+00
     -4.18412118582562E-19  -5.57544860600807E-34  -4.18412118582562E-19  -1.44668217757591E-17   1.00631136040312E-01
      1.00631135720149E-01   0.00000000000000E+00   0.00000000000000E+00   1.52176668847143E-09   1.69477588543315E-35
      1.52176668847143E-09   5.88912833017966E-18
      1.27012948884083E-01
      0.00000000000000E+00   3.24399418090474E-10   0.00000000000000E+00   0.00000000000000E+00  -1.54759675232978E-09
      5.32186446096341E-34  -1.54759675232978E-09   5.39435127696347E-18   0.00000000000000E+00   0.00000000000000E+00
      0.00000000000000E+00   0.00000000000000E+00   0.00000000000000E+00   0.00000000000000E+00   0.00000000000000E+00
      3.07208711750034E-18   0.00000000000000E+00   0.00000000000000E+00   0.00000000000000E+00   0.00000000000000E+00
     -2.75083999958166E-20  -5.45331243524591E-34  -2.75083999958171E-20  -1.44664832219065E-17   1.09231136040312E-01
      1.09231135715084E-01   0.00000000000000E+00   0.00000000000000E+00   1.54759675235728E-09   1.31447974282496E-35
      1.54759675235728E-09   6.00004482744272E-18
      1.37012948884083E-01
      0.00000000000000E+00   3.29570918895633E-10   0.00000000000000E+00   0.00000000000000E+00  -1.57362562773278E-09
      5.47865696035694E-34  -1.57362562773278E-09   5.39173740845848E-18   0.00000000000000E+00   0.00000000000000E+00
      0.00000000000000E+00   0.00000000000000E+00   0.00000000000000E+00   0.00000000000000E+00   0.00000000000000E+00
      2.96349501009285E-18   0.00000000000000E+00   0.00000000000000E+00   0.00000000000000E+00   0.00000000000000E+00
     -2.14037692904488E-19  -5.56784086543317E-34  -2.14037692904489E-19  -1.44663248672330E-17   1.17831136040312E-01
      1.17831135709989E-01   0.00000000000000E+00   0.00000000000000E+00   1.57362562794682E-09   8.91839050762257E-36
      1.57362562794682E-09   6.11109244868160E-18
      1.47012948884083E-01
      0.00000000000000E+00   3.34782014535952E-10   0.00000000000000E+00   0.00000000000000E+00  -1.59988788891016E-09
      5.34954607768888E-34  -1.59988788891016E-09   5.38912425135217E-18   0.00000000000000E+00   0.00000000000000E+00
      0.00000000000000E+00   0.00000000000000E+00   0.00000000000000E+00   0.00000000000000E+00   0.00000000000000E+00
      2.85494683937773E-18   0.00000000000000E+00   0.00000000000000E+00   0.00000000000000E+00   0.00000000000000E+00
      3.07435097367085E-20  -5.42028197003312E-34   3.07435097367080E-20  -1.44663328166108E-17   1.26431136040312E-01
      1.26431135704853E-01   0.00000000000000E+00   0.00000000000000E+00   1.59988788887942E-09   7.07358923442361E-36
      1.59988788887942E-09   6.22226172588089E-18
      1.57012948884083E-01
      0.00000000000000E+00   3.40036677093119E-10   0.00000000000000E+00   0.00000000000000E+00  -1.62640153906208E-09
      5.24517378398570E-34  -1.62640153906208E-09   5.38651175260751E-18   0.00000000000000E+00   0.00000000000000E+00
      0.00000000000000E+00   0.00000000000000E+00   0.00000000000000E+00   0.00000000000000E+00   0.00000000000000E+00
      2.74643875943994E-18   0.00000000000000E+00   0.00000000000000E+00   0.00000000000000E+00   0.00000000000000E+00
     -3.91708426852900E-19  -5.29702280746116E-34  -3.91708426852900E-19  -1.44664944762641E-17   1.35031136040312E-01
      1.35031135699674E-01   0.00000000000000E+00   0.00000000000000E+00   1.62640153945379E-09   5.18490234754699E-36
      1.62640153945379E-09   6.33354396421661E-18
      1.67012948884083E-01
      0.00000000000000E+00   3.45336418347763E-10   0.00000000000000E+00   0.00000000000000E+00  -1.65317289437746E-09
      5.28290574968785E-34  -1.65317289437746E-09   5.38389986375340E-18   0.00000000000000E+00   0.00000000000000E+00
      0.00000000000000E+00   0.00000000000000E+00   0.00000000000000E+00   0.00000000000000E+00   0.00000000000000E+00
      2.63796734769402E-18   0.00000000000000E+00   0.00000000000000E+00   0.00000000000000E+00   0.00000000000000E+00
      1.47735491075265E-19  -5.32189680215264E-34   1.47735491075265E-19  -1.44667983757105E-17   1.43631136040312E-01
      1.43631135694449E-01   0.00000000000000E+00   0.00000000000000E+00   1.65317289422972E-09   3.89910524647894E-36
      1.65317289422972E-09   6.44493116426311E-18
      1.77012948884083E-01
      0.00000000000000E+00   3.50681160272498E-10   0.00000000000000E+00   0.00000000000000E+00  -1.68020108431485E-09
      5.33117181280029E-34  -1.68020108431485E-09   5.38128854035401E-18   0.00000000000000E+00   0.00000000000000E+00
      0.00000000000000E+00   0.00000000000000E+00   0.00000000000000E+00   0.00000000000000E+00   0.00000000000000E+00
      2.52952954608641E-18   0.00000000000000E+00   0.00000000000000E+00   0.00000000000000E+00   0.00000000000000E+00
      1.54654938606621E-19  -5.36070623234919E-34   1.54654938606620E-19  -1.44672340411478E-17   1.52231136040312E-01
      1.52231135689180E-01   0.00000000000000E+00   0.00000000000000E+00   1.68020108416020E-09   2.95344195488949E-36
      1.68020108416020E-09   6.55641595470736E-18
      1.87012948884083E-01
      0.00000000000000E+00   3.56070338794336E-10   0.00000000000000E+00   0.00000000000000E+00  -1.70748339984964E-09