DF-ISE text

Info {
  version   = 1.0
  type      = xyplot
  datasets  = [
    "time"
    "source OuterVoltage" "source InnerVoltage" "source QuasiFermiPotential" "source DisplacementCurrent" "source eCurrent"
    "source hCurrent" "source TotalCurrent" "source Charge" "gate OuterVoltage" "gate InnerVoltage"
    "gate QuasiFermiPotential" "gate DisplacementCurrent" "gate eCurrent" "gate hCurrent" "gate TotalCurrent"
    "gate Charge" "substrate OuterVoltage" "substrate InnerVoltage" "substrate QuasiFermiPotential" "substrate DisplacementCurrent"
    "substrate eCurrent" "substrate hCurrent" "substrate TotalCurrent" "substrate Charge" "drain OuterVoltage"
    "drain InnerVoltage" "drain QuasiFermiPotential" "drain DisplacementCurrent" "drain eCurrent" "drain hCurrent"
    "drain TotalCurrent" "drain Charge" ]
  functions = [
    Time
    OuterVoltage InnerVoltage QuasiFermiPotential DisplacementCurrent eCurrent
    hCurrent TotalCurrent Charge OuterVoltage InnerVoltage
    QuasiFermiPotential DisplacementCurrent eCurrent hCurrent TotalCurrent
    Charge OuterVoltage InnerVoltage QuasiFermiPotential DisplacementCurrent
    eCurrent hCurrent TotalCurrent Charge OuterVoltage
    InnerVoltage QuasiFermiPotential DisplacementCurrent eCurrent hCurrent
    TotalCurrent Charge ]
}

Data {
      0.00000000000000E+00
      0.00000000000000E+00   0.00000000000000E+00   0.00000000000000E+00   0.00000000000000E+00   2.30507563083286E-21
      6.54586660781975E-34   2.30507563083351E-21   4.84326155171751E-18   0.00000000000000E+00   0.00000000000000E+00
      0.00000000000000E+00   0.00000000000000E+00   0.00000000000000E+00   0.00000000000000E+00   0.00000000000000E+00
      3.44284233387359E-18   0.00000000000000E+00   0.00000000000000E+00   0.00000000000000E+00   0.00000000000000E+00
     -3.46404608289878E-21  -1.25362469091177E-33  -3.46404608290004E-21  -1.23268543819445E-17   0.00000000000000E+00
      0.00000000000000E+00   0.00000000000000E+00   0.00000000000000E+00   1.15897045206592E-21   5.99038030129800E-34
      1.15897045206652E-21   4.04075049635340E-18
      0.00000000000000E+00
      0.00000000000000E+00   0.00000000000000E+00   0.00000000000000E+00   0.00000000000000E+00  -2.48716046958331E-20
      6.07796084509513E-34  -2.48716046958325E-20   4.84152969994818E-18   0.00000000000000E+00   0.00000000000000E+00
      0.00000000000000E+00   0.00000000000000E+00   0.00000000000000E+00   0.00000000000000E+00   0.00000000000000E+00
      3.43692271705962E-18   0.00000000000000E+00   0.00000000000000E+00   0.00000000000000E+00   0.00000000000000E+00
      4.67307681716734E-20  -1.21553832627122E-33   4.67307681716722E-20  -1.23179763998902E-17   0.00000000000000E+00
      0.00000000000000E+00   0.00000000000000E+00   0.00000000000000E+00  -2.18591634758403E-20   6.07742241761703E-34
     -2.18591634758397E-20   4.03952398288240E-18
      1.00000000000000E-03
      0.00000000000000E+00   1.74259337481321E-12   0.00000000000000E+00   0.00000000000000E+00  -7.88949388702548E-12
      6.23736483996882E-34  -7.88949388702548E-12   4.84151198729197E-18   0.00000000000000E+00   0.00000000000000E+00
      0.00000000000000E+00   0.00000000000000E+00   0.00000000000000E+00   0.00000000000000E+00   0.00000000000000E+00
      3.43633765778371E-18   0.00000000000000E+00   0.00000000000000E+00   0.00000000000000E+00   0.00000000000000E+00
     -6.41941588465997E-20  -1.20711782321969E-33  -6.41941588466009E-20  -1.23179557284366E-17   5.00000000000000E-05
      4.99999982348622E-05   0.00000000000000E+00   0.00000000000000E+00   7.88949395121964E-12   5.83381339222807E-34
      7.88949395121964E-12   4.04010608336092E-18
      2.09333333333333E-03
      0.00000000000000E+00   3.64203352664004E-12   0.00000000000000E+00   0.00000000000000E+00  -1.64890174711079E-11
      6.33882584450594E-34  -1.64890174711079E-11   4.84149262169503E-18   0.00000000000000E+00   0.00000000000000E+00
      0.00000000000000E+00   0.00000000000000E+00   0.00000000000000E+00   0.00000000000000E+00   0.00000000000000E+00
      3.43569800204094E-18   0.00000000000000E+00   0.00000000000000E+00   0.00000000000000E+00   0.00000000000000E+00
      2.64802387475987E-20  -1.25167912265206E-33   2.64802387475975E-20  -1.23179331493750E-17   1.04666666666667E-04
      1.04666662977534E-04   0.00000000000000E+00   0.00000000000000E+00   1.64890174446276E-11   6.17796538201464E-34
      1.64890174446276E-11   4.04074252563903E-18
      3.29600000000000E-03
      0.00000000000000E+00   5.72415200241062E-12   0.00000000000000E+00   0.00000000000000E+00  -2.59155390120479E-11
      6.40792188000798E-34  -2.59155390120479E-11   4.84147131982985E-18   0.00000000000000E+00   0.00000000000000E+00
      0.00000000000000E+00   0.00000000000000E+00   0.00000000000000E+00   0.00000000000000E+00   0.00000000000000E+00
      3.43499439165208E-18   0.00000000000000E+00   0.00000000000000E+00   0.00000000000000E+00   0.00000000000000E+00
      1.31106861821060E-20  -1.22498454914430E-33   1.31106861821048E-20  -1.23179083386018E-17   1.64800000000000E-04
      1.64799994201841E-04   0.00000000000000E+00   0.00000000000000E+00   2.59155389989372E-11   5.84192361143505E-34
      2.59155389989372E-11   4.04144262711982E-18
      4.61893333333333E-03
      0.00000000000000E+00   8.00549888042491E-12   0.00000000000000E+00   0.00000000000000E+00  -3.62440201035903E-11
      6.26410634803158E-34  -3.62440201035903E-11   4.84144788813164E-18   0.00000000000000E+00   0.00000000000000E+00
      0.00000000000000E+00   0.00000000000000E+00   0.00000000000000E+00   0.00000000000000E+00   0.00000000000000E+00
      3.43422043343453E-18   0.00000000000000E+00   0.00000000000000E+00   0.00000000000000E+00   0.00000000000000E+00
     -7.91253322934127E-21  -1.23315252015876E-33  -7.91253322934250E-21  -1.23178810784201E-17   2.30946666666667E-04
      2.30946658557662E-04   0.00000000000000E+00   0.00000000000000E+00   3.62440201115028E-11   6.06741885355605E-34
      3.62440201115028E-11   4.04221275685396E-18
      6.07416000000000E-03
      0.00000000000000E+00   1.05039667171978E-11   0.00000000000000E+00   0.00000000000000E+00  -4.75554180336649E-11
      6.35227332974127E-34  -4.75554180336649E-11   4.84142211369190E-18   0.00000000000000E+00   0.00000000000000E+00
      0.00000000000000E+00   0.00000000000000E+00   0.00000000000000E+00   0.00000000000000E+00   0.00000000000000E+00
      3.43336909536223E-18   0.00000000000000E+00   0.00000000000000E+00   0.00000000000000E+00   0.00000000000000E+00
      9.33655790500040E-21  -1.23084582367922E-33   9.33655790499917E-21  -1.23178511305048E-17   3.03708000000000E-04
      3.03707989360231E-04   0.00000000000000E+00   0.00000000000000E+00   4.75554180243284E-11   5.95618490705097E-34
      4.75554180243284E-11   4.04305992145069E-18
      7.67490933333333E-03
      0.00000000000000E+00   1.32388240235782E-11   0.00000000000000E+00   0.00000000000000E+00  -5.99369121446406E-11
      6.20666279006644E-34  -5.99369121446406E-11   4.84139376232683E-18   0.00000000000000E+00   0.00000000000000E+00
      0.00000000000000E+00   0.00000000000000E+00   0.00000000000000E+00   0.00000000000000E+00   0.00000000000000E+00
      3.43243264277953E-18   0.00000000000000E+00   0.00000000000000E+00   0.00000000000000E+00   0.00000000000000E+00
      4.70864298910246E-20  -1.21252683771705E-33   4.70864298910234E-20  -1.23178182340756E-17   3.83745466666667E-04
      3.83745453256695E-04   0.00000000000000E+00   0.00000000000000E+00   5.99369120975542E-11   5.91860558710401E-34
      5.99369120975542E-11   4.04399182896923E-18
      9.43573360000000E-03
      0.00000000000000E+00   1.62307538910404E-11   0.00000000000000E+00   0.00000000000000E+00  -7.34821136492852E-11
      6.17763005932036E-34  -7.34821136492852E-11   4.84136257645302E-18   0.00000000000000E+00   0.00000000000000E+00
      0.00000000000000E+00   0.00000000000000E+00   0.00000000000000E+00   0.00000000000000E+00   0.00000000000000E+00
      3.43140256825688E-18   0.00000000000000E+00   0.00000000000000E+00   0.00000000000000E+00   0.00000000000000E+00
      3.97434965202523E-20  -1.18946833063899E-33   3.97434965202511E-20  -1.23177821039377E-17   4.71786680000000E-04
      4.71786663559436E-04   0.00000000000000E+00   0.00000000000000E+00   7.34821136095417E-11   5.71705324706955E-34
      7.34821136095417E-11   4.04501695922777E-18
      1.13726402933333E-02
      0.00000000000000E+00   1.95019106435782E-11   0.00000000000000E+00   0.00000000000000E+00  -8.82912299359104E-11
      5.92179133748342E-34  -8.82912299359104E-11   4.84132827275143E-18   0.00000000000000E+00   0.00000000000000E+00
      0.00000000000000E+00   0.00000000000000E+00   0.00000000000000E+00   0.00000000000000E+00   0.00000000000000E+00
      3.43026951445600E-18   0.00000000000000E+00   0.00000000000000E+00   0.00000000000000E+00   0.00000000000000E+00
      7.37647193881615E-20  -1.19671734468067E-33   7.37647193881603E-20  -1.23177424283844E-17   5.68632014666667E-04
      5.68631994912679E-04   0.00000000000000E+00   0.00000000000000E+00   8.82912298621457E-11   6.04538210932326E-34
      8.82912298621457E-11   4.04614464117697E-18
      1.35032376560000E-02
      0.00000000000000E+00   2.30758863615855E-11   0.00000000000000E+00   0.00000000000000E+00  -1.04471158247577E-10
      6.27768615086788E-34  -1.04471158247577E-10   4.84129053959859E-18   0.00000000000000E+00   0.00000000000000E+00
      0.00000000000000E+00   0.00000000000000E+00   0.00000000000000E+00   0.00000000000000E+00   0.00000000000000E+00
      3.42902318931089E-18   0.00000000000000E+00   0.00000000000000E+00   0.00000000000000E+00   0.00000000000000E+00
      1.18106597784397E-19  -1.19655807231513E-33   1.18106597784396E-19  -1.23176988669610E-17   6.75161882800000E-04
      6.75161859425848E-04   0.00000000000000E+00   0.00000000000000E+00   1.04471158129471E-10   5.68789457228341E-34
      1.04471158129471E-10   4.04738513805150E-18
      1.58468947549333E-02
      0.00000000000000E+00   2.69778293358164E-11   0.00000000000000E+00   0.00000000000000E+00  -1.22135483618880E-10
      6.22217331187476E-34  -1.22135483618880E-10   4.84124903424163E-18   0.00000000000000E+00   0.00000000000000E+00
      0.00000000000000E+00   0.00000000000000E+00   0.00000000000000E+00   0.00000000000000E+00   0.00000000000000E+00
      3.42765227276196E-18   0.00000000000000E+00   0.00000000000000E+00   0.00000000000000E+00   0.00000000000000E+00
      1.03101030221641E-19  -1.19235820415258E-33   1.03101030221640E-19  -1.23176510480896E-17   7.92344737746667E-04
      7.92344710420159E-04   0.00000000000000E+00   0.00000000000000E+00   1.22135483515779E-10   5.70140872965105E-34
      1.22135483515779E-10   4.04874974108604E-18
      1.84249175637600E-02
      0.00000000000000E+00   3.12342835536861E-11   0.00000000000000E+00   0.00000000000000E+00  -1.41404353246290E-10
      6.01554061533733E-34  -1.41404353246290E-10   4.84120337969232E-18   0.00000000000000E+00   0.00000000000000E+00
      0.00000000000000E+00   0.00000000000000E+00   0.00000000000000E+00   0.00000000000000E+00   0.00000000000000E+00
      3.42614431420585E-18   0.00000000000000E+00   0.00000000000000E+00   0.00000000000000E+00   0.00000000000000E+00
      2.18114694187118E-19  -1.18348464057091E-33   2.18114694187117E-19  -1.23175985665602E-17   9.21245878188001E-04
      9.21245846550041E-04   0.00000000000000E+00   0.00000000000000E+00   1.41404353028176E-10   5.81930579037180E-34
      1.41404353028176E-10   4.05025087266206E-18
      2.12607426534693E-02
      0.00000000000000E+00   3.58731844074601E-11   0.00000000000000E+00   0.00000000000000E+00  -1.62404194154591E-10
      6.39801733349344E-34  -1.62404194154591E-10   4.84115316131164E-18   0.00000000000000E+00   0.00000000000000E+00
      0.00000000000000E+00   0.00000000000000E+00   0.00000000000000E+00   0.00000000000000E+00   0.00000000000000E+00
      3.42448561973942E-18   0.00000000000000E+00   0.00000000000000E+00   0.00000000000000E+00   0.00000000000000E+00
      2.72805565913237E-19  -1.22132442640879E-33   2.72805565913236E-19  -1.23175409808898E-17   1.06303713267347E-03
      1.06303709633668E-03   0.00000000000000E+00   0.00000000000000E+00   1.62404193881785E-10   5.81522693059451E-34
      1.62404193881785E-10   4.05190219983871E-18
      2.43801502521496E-02
      0.00000000000000E+00   4.09238114843430E-11   0.00000000000000E+00   0.00000000000000E+00  -1.85267233144280E-10
      6.72231036539303E-34  -1.85267233144280E-10   4.84109792305440E-18   0.00000000000000E+00   0.00000000000000E+00
      0.00000000000000E+00   0.00000000000000E+00   0.00000000000000E+00   0.00000000000000E+00   0.00000000000000E+00
      3.42266112819036E-18   0.00000000000000E+00   0.00000000000000E+00   0.00000000000000E+00   0.00000000000000E+00
     -2.46098537154343E-18  -1.21465011873215E-33  -2.46098537154343E-18  -1.23174778105691E-17   1.21900751260748E-03
      1.21900747115484E-03   0.00000000000000E+00   0.00000000000000E+00   1.85267235605266E-10   5.42419082192851E-34
      1.85267235605266E-10   4.05371875932434E-18
      2.78114986106979E-02
      0.00000000000000E+00   4.64164855646816E-11   0.00000000000000E+00   0.00000000000000E+00  -2.10130778427541E-10
      6.38094970941064E-34  -2.10130778427541E-10   4.84103716334061E-18   0.00000000000000E+00   0.00000000000000E+00
      0.00000000000000E+00   0.00000000000000E+00   0.00000000000000E+00   0.00000000000000E+00   0.00000000000000E+00
      3.42065427482064E-18   0.00000000000000E+00   0.00000000000000E+00   0.00000000000000E+00   0.00000000000000E+00
      6.02675245223905E-19  -1.21440950909666E-33   6.02675245223904E-19  -1.23174085332063E-17   1.39057493053490E-03
      1.39057488351863E-03   0.00000000000000E+00   0.00000000000000E+00   2.10130777824866E-10   5.76314538155594E-34
      2.10130777824866E-10   4.05571709504502E-18
      3.15859818051010E-02
      0.00000000000000E+00   5.23825136867953E-11   0.00000000000000E+00   0.00000000000000E+00  -2.37136213192889E-10
      6.11839225467379E-34  -2.37136213192889E-10   4.84097033051599E-18   0.00000000000000E+00   0.00000000000000E+00
      0.00000000000000E+00   0.00000000000000E+00   0.00000000000000E+00   0.00000000000000E+00   0.00000000000000E+00
      3.41844684148931E-18   0.00000000000000E+00   0.00000000000000E+00   0.00000000000000E+00   0.00000000000000E+00
      8.51077899451627E-18  -1.16553927110182E-33   8.51077899451627E-18  -1.23173325816006E-17   1.57929909025505E-03
      1.57929903719572E-03   0.00000000000000E+00   0.00000000000000E+00   2.37136204682110E-10   5.53700045634441E-34
      2.37136204682110E-10   4.05791540959528E-18
      3.57379133189445E-02
      0.00000000000000E+00   5.88537659744952E-11   0.00000000000000E+00   0.00000000000000E+00  -2.66427618204647E-10
      6.38184832331898E-34  -2.66427618204647E-10   4.84089681786134E-18   0.00000000000000E+00   0.00000000000000E+00
      0.00000000000000E+00   0.00000000000000E+00   0.00000000000000E+00   0.00000000000000E+00   0.00000000000000E+00
      3.41601879193130E-18   0.00000000000000E+00   0.00000000000000E+00   0.00000000000000E+00   0.00000000000000E+00
      2.34669249880599E-17  -1.20540047546144E-33   2.34669249880599E-17  -1.23172493407706E-17   1.78689566594722E-03
      1.78689560633307E-03   0.00000000000000E+00   0.00000000000000E+00   2.66427594737722E-10   5.67215643129540E-34
      2.66427594737722E-10   4.06033373097790E-18
      4.03050379841723E-02
      0.00000000000000E+00   6.58623486011505E-11   0.00000000000000E+00   0.00000000000000E+00  -2.98149959814189E-10
      6.69067907259738E-34  -2.98149959814189E-10   4.84081595810643E-18   0.00000000000000E+00   0.00000000000000E+00
      0.00000000000000E+00   0.00000000000000E+00   0.00000000000000E+00   0.00000000000000E+00   0.00000000000000E+00
      3.41334809068973E-18   0.00000000000000E+00   0.00000000000000E+00   0.00000000000000E+00   0.00000000000000E+00
      1.92980264571385E-18  -1.26171623085879E-33   1.92980264571385E-18  -1.23171581449930E-17   2.01525189920861E-03
      2.01525183249539E-03   0.00000000000000E+00   0.00000000000000E+00   2.98149957884386E-10   5.92648323599053E-34
      2.98149957884386E-10   4.06299409619685E-18
      4.53288751159228E-02
      0.00000000000000E+00   7.34400673134198E-11   0.00000000000000E+00   0.00000000000000E+00  -3.32446964458301E-10
      5.93787011287980E-34  -3.32446964458301E-10   4.84072701739884E-18   0.00000000000000E+00   0.00000000000000E+00
      0.00000000000000E+00   0.00000000000000E+00   0.00000000000000E+00   0.00000000000000E+00   0.00000000000000E+00
      3.41041050408595E-18   0.00000000000000E+00   0.00000000000000E+00   0.00000000000000E+00   0.00000000000000E+00
      2.85555657263741E-18  -1.15482839940507E-33   2.85555657263741E-18  -1.23170582749032E-17   2.26644375579614E-03
      2.26644368140737E-03   0.00000000000000E+00   0.00000000000000E+00   3.32446961602745E-10   5.61041388117087E-34
      3.32446961602745E-10   4.06592075341838E-18
      5.08550959608485E-02
      0.00000000000000E+00   8.16178463201574E-11   0.00000000000000E+00   0.00000000000000E+00  -3.69458133682318E-10
      6.52946794073345E-34  -3.69458133682318E-10   4.84062918867476E-18   0.00000000000000E+00   0.00000000000000E+00
      0.00000000000000E+00   0.00000000000000E+00   0.00000000000000E+00   0.00000000000000E+00   0.00000000000000E+00
      3.40717938146402E-18   0.00000000000000E+00   0.00000000000000E+00   0.00000000000000E+00   0.00000000000000E+00
      1.78863074587000E-17  -1.22596094847339E-33   1.78863074587000E-17  -1.23169489547424E-17   2.54275479804242E-03
      2.54275471537031E-03   0.00000000000000E+00   0.00000000000000E+00   3.69458115796010E-10   5.73014154400048E-34
      3.69458115796010E-10   4.06914038460358E-18
      5.69339388902666E-02
      0.00000000000000E+00   9.04249308740864E-11   0.00000000000000E+00   0.00000000000000E+00  -4.09315349027664E-10
      6.44679964290677E-34  -4.09315349027664E-10   4.84052158437183E-18   0.00000000000000E+00   0.00000000000000E+00
      0.00000000000000E+00   0.00000000000000E+00   0.00000000000000E+00   0.00000000000000E+00   0.00000000000000E+00
      3.40362541475457E-18   0.00000000000000E+00   0.00000000000000E+00   0.00000000000000E+00   0.00000000000000E+00
      6.06055485661190E-18  -1.20358874961487E-33   6.06055485661190E-18  -1.23168293498236E-17   2.84669694451333E-03
      2.84669685292045E-03   0.00000000000000E+00   0.00000000000000E+00   4.09315342967109E-10   5.58908785324188E-34
      4.09315342967109E-10   4.07268235069724E-18
      6.36206661126266E-02
      0.00000000000000E+00   9.98879971503744E-11   0.00000000000000E+00   0.00000000000000E+00  -4.52138828227753E-10
      6.13159907701191E-34  -4.52138828227753E-10   4.84040322841962E-18   0.00000000000000E+00   0.00000000000000E+00
      0.00000000000000E+00   0.00000000000000E+00   0.00000000000000E+00   0.00000000000000E+00   0.00000000000000E+00
      3.39971637423747E-18   0.00000000000000E+00   0.00000000000000E+00   0.00000000000000E+00   0.00000000000000E+00
      8.80249582722939E-18  -1.13990366679029E-33   8.80249582722939E-18  -1.23166985643529E-17   3.18103330563133E-03
      3.18103320445323E-03   0.00000000000000E+00   0.00000000000000E+00   4.52138819425257E-10   5.26743759089104E-34
      4.52138819425257E-10   4.07657896169579E-18
      7.09760660572226E-02
      0.00000000000000E+00   1.10030050968149E-10   0.00000000000000E+00   0.00000000000000E+00  -4.98032013775625E-10
      6.15967184204483E-34  -4.98032013775625E-10   4.84027304743768E-18   0.00000000000000E+00   0.00000000000000E+00
      0.00000000000000E+00   0.00000000000000E+00   0.00000000000000E+00   0.00000000000000E+00   0.00000000000000E+00
      3.39541681819567E-18   0.00000000000000E+00   0.00000000000000E+00   0.00000000000000E+00   0.00000000000000E+00
     -1.01781984634846E-17  -1.13969573958447E-33  -1.01781984634846E-17  -1.23165556397910E-17   3.54880330286113E-03
      3.54880319141010E-03   0.00000000000000E+00   0.00000000000000E+00   4.98032023953824E-10   5.23728555379990E-34
      4.98032023953824E-10   4.08086577415764E-18
      7.90670059962782E-02
      0.00000000000000E+00   1.20869162564865E-10   0.00000000000000E+00   0.00000000000000E+00  -5.47075993787949E-10
      5.89990608948956E-34  -5.47075993787949E-10   4.84012986106080E-18   0.00000000000000E+00   0.00000000000000E+00
      0.00000000000000E+00   0.00000000000000E+00   0.00000000000000E+00   0.00000000000000E+00   0.00000000000000E+00
      3.39068777381800E-18   0.00000000000000E+00   0.00000000000000E+00   0.00000000000000E+00   0.00000000000000E+00
      8.67347156053922E-18  -1.09515803855510E-33   8.67347156053922E-18  -1.23163995538335E-17   3.95335029981391E-03
      3.95335017738389E-03   0.00000000000000E+00   0.00000000000000E+00   5.47075985114478E-10   5.05167429606141E-34
      5.47075985114478E-10   4.08558191895465E-18
      8.79670399292394E-02
      0.00000000000000E+00   1.32417011672665E-10   0.00000000000000E+00   0.00000000000000E+00  -5.99322831271823E-10
      6.35043635520485E-34  -5.99322831271823E-10   4.83997237130795E-18   0.00000000000000E+00   0.00000000000000E+00
      0.00000000000000E+00   0.00000000000000E+00   0.00000000000000E+00   0.00000000000000E+00   0.00000000000000E+00
      3.38548638664332E-18   0.00000000000000E+00   0.00000000000000E+00   0.00000000000000E+00   0.00000000000000E+00
      4.12555518746561E-17  -1.13780555000817E-33   4.12555518746561E-17  -1.23162292203620E-17   4.39835199646197E-03
      4.39835186233508E-03   0.00000000000000E+00   0.00000000000000E+00   5.99322790016271E-10   5.02761914487690E-34
      5.99322790016271E-10   4.09077046241067E-18
      9.77570772554967E-02
      0.00000000000000E+00   1.44677293540087E-10   0.00000000000000E+00   0.00000000000000E+00  -6.54788108733709E-10
      6.12437212869962E-34  -6.54788108733709E-10   4.83979915089975E-18   0.00000000000000E+00   0.00000000000000E+00
      0.00000000000000E+00   0.00000000000000E+00   0.00000000000000E+00   0.00000000000000E+00   0.00000000000000E+00
      3.37976553538162E-18   0.00000000000000E+00   0.00000000000000E+00   0.00000000000000E+00   0.00000000000000E+00
      3.39328836844151E-17  -1.11067544121112E-33   3.39328836844151E-17  -1.23160434905415E-17   4.88785386277484E-03
      4.88785371622952E-03   0.00000000000000E+00   0.00000000000000E+00   6.54788074800826E-10   4.98238228341156E-34
      6.54788074800826E-10   4.09647880426014E-18
      1.07757077255497E-01
      0.00000000000000E+00   1.56735461192121E-10   0.00000000000000E+00   0.00000000000000E+00  -7.09334433137786E-10
      6.57461705340719E-34  -7.09334433137786E-10   4.83962223515087E-18   0.00000000000000E+00   0.00000000000000E+00
      0.00000000000000E+00   0.00000000000000E+00   0.00000000000000E+00   0.00000000000000E+00   0.00000000000000E+00
      3.37392271546128E-18   0.00000000000000E+00   0.00000000000000E+00   0.00000000000000E+00   0.00000000000000E+00
      4.49055811335099E-17  -1.14528856085087E-33   4.49055811335099E-17  -1.23158555365500E-17   5.38785386277483E-03
      5.38785370401573E-03   0.00000000000000E+00   0.00000000000000E+00   7.09334388232206E-10   4.87826855510156E-34
      7.09334388232206E-10   4.10231058593781E-18
      1.17757077255497E-01
      0.00000000000000E+00   1.68337841181323E-10   0.00000000000000E+00   0.00000000000000E+00  -7.61814156546637E-10
      5.93518772243952E-34  -7.61814156546637E-10   4.83944533907167E-18   0.00000000000000E+00   0.00000000000000E+00
      0.00000000000000E+00   0.00000000000000E+00   0.00000000000000E+00   0.00000000000000E+00   0.00000000000000E+00
      3.36808062124729E-18   0.00000000000000E+00   0.00000000000000E+00   0.00000000000000E+00   0.00000000000000E+00
      4.50972202401706E-17  -1.08946064576814E-33   4.50972202401706E-17  -1.23156693484364E-17   5.88785386277483E-03
      5.88785369226365E-03   0.00000000000000E+00   0.00000000000000E+00   7.61814111449417E-10   4.95941873524189E-34
      7.61814111449417E-10   4.10814338811745E-18
      1.27757077255497E-01
      0.00000000000000E+00   1.79498522662053E-10   0.00000000000000E+00   0.00000000000000E+00  -8.12291615652307E-10
      6.49483125580871E-34  -8.12291615652307E-10   4.83926846247844E-18   0.00000000000000E+00   0.00000000000000E+00
      0.00000000000000E+00   0.00000000000000E+00   0.00000000000000E+00   0.00000000000000E+00   0.00000000000000E+00
      3.36223924680219E-18   0.00000000000000E+00   0.00000000000000E+00   0.00000000000000E+00   0.00000000000000E+00
      4.43356443871679E-17  -1.13347774328405E-33   4.43356443871679E-17  -1.23154849142942E-17   6.38785386277483E-03
      6.38785368095896E-03   0.00000000000000E+00   0.00000000000000E+00   8.12291571316663E-10   4.83994617703184E-34
      8.12291571316663E-10   4.11397720501360E-18
      1.37757077255497E-01
      0.00000000000000E+00   1.90231418824456E-10   0.00000000000000E+00   0.00000000000000E+00  -8.60830178307918E-10
      6.32276870117790E-34  -8.60830178307918E-10   4.83909160518820E-18   0.00000000000000E+00   0.00000000000000E+00
      0.00000000000000E+00   0.00000000000000E+00   0.00000000000000E+00   0.00000000000000E+00   0.00000000000000E+00
      3.35639858631451E-18   0.00000000000000E+00   0.00000000000000E+00   0.00000000000000E+00   0.00000000000000E+00
      4.36463705895200E-17  -1.08033872962934E-33   4.36463705895200E-17  -1.23153022223898E-17   6.88785386277483E-03
      6.88785367008762E-03   0.00000000000000E+00   0.00000000000000E+00   8.60830134661548E-10   4.48061859511547E-34
      8.60830134661548E-10   4.11981203088713E-18
      1.47757077255497E-01
      0.00000000000000E+00   2.00550346722128E-10   0.00000000000000E+00   0.00000000000000E+00  -9.07492699383368E-10
      6.28455481823749E-34  -9.07492699383368E-10   4.83891476701580E-18   0.00000000000000E+00   0.00000000000000E+00
      0.00000000000000E+00   0.00000000000000E+00   0.00000000000000E+00   0.00000000000000E+00   0.00000000000000E+00
      3.35055863388924E-18   0.00000000000000E+00   0.00000000000000E+00   0.00000000000000E+00   0.00000000000000E+00
      4.29038178801417E-17  -1.11331914051106E-33   4.29038178801417E-17  -1.23151212609174E-17   7.38785386277483E-03
      7.38785365963557E-03   0.00000000000000E+00   0.00000000000000E+00   9.07492656479550E-10   4.84863658687317E-34
      9.07492656479550E-10   4.12564786001236E-18
      1.57757077255497E-01
      0.00000000000000E+00   2.10468844441005E-10   0.00000000000000E+00   0.00000000000000E+00  -9.52340863524058E-10
      6.24354277469951E-34  -9.52340863524058E-10   4.83873794777681E-18   0.00000000000000E+00   0.00000000000000E+00
      0.00000000000000E+00   0.00000000000000E+00   0.00000000000000E+00   0.00000000000000E+00   0.00000000000000E+00
      3.34471938370681E-18   0.00000000000000E+00   0.00000000000000E+00   0.00000000000000E+00   0.00000000000000E+00
      4.22307329296700E-17  -1.10617973807512E-33   4.22307329296700E-17  -1.23149420181884E-17   7.88785386277484E-03
      7.88785364958905E-03   0.00000000000000E+00   0.00000000000000E+00   9.52340821293326E-10   4.81825460605167E-34
      9.52340821293326E-10   4.13148468670472E-18
      1.67757077255497E-01
      0.00000000000000E+00   2.20000187408244E-10   0.00000000000000E+00   0.00000000000000E+00  -9.95435069492704E-10
      6.40447243361206E-34  -9.95435069492704E-10   4.83856114728769E-18   0.00000000000000E+00   0.00000000000000E+00
      0.00000000000000E+00   0.00000000000000E+00   0.00000000000000E+00   0.00000000000000E+00   0.00000000000000E+00
      3.33888083003168E-18   0.00000000000000E+00   0.00000000000000E+00   0.00000000000000E+00   0.00000000000000E+00
      4.15883785808429E-17  -1.11431844116605E-33   4.15883785808429E-17  -1.23147644826462E-17   8.38785386277484E-03
      8.38785363993469E-03   0.00000000000000E+00   0.00000000000000E+00   9.95435027904327E-10   4.73871197804845E-34
      9.95435027904327E-10   4.13732250532689E-18
      1.77757077255497E-01
      0.00000000000000E+00   2.29157364358081E-10   0.00000000000000E+00   0.00000000000000E+00  -1.03683445936049E-09
      6.40088167167994E-34  -1.03683445936049E-09   4.83838436536555E-18   0.00000000000000E+00   0.00000000000000E+00
      0.00000000000000E+00   0.00000000000000E+00   0.00000000000000E+00   0.00000000000000E+00   0.00000000000000E+00
      3.33304296717860E-18   0.00000000000000E+00   0.00000000000000E+00   0.00000000000000E+00   0.00000000000000E+00
      4.47937170851337E-17  -1.09625460292899E-33   4.47937170851337E-17  -1.23145886428273E-17   8.88785386277484E-03
      8.88785363065931E-03   0.00000000000000E+00   0.00000000000000E+00   1.03683441456677E-09   4.56166435760998E-34
      1.03683441456677E-09   4.14316131028315E-18
      1.87757077255497E-01
      0.00000000000000E+00   2.37953105657784E-10   0.00000000000000E+00   0.00000000000000E+00  -1.07659689761148E-09
      6.54115845594428E-34  -1.07659689761148E-09   4.83820760182681E-18   0.00000000000000E+00   0.00000000000000E+00
      0.00000000000000E+00   0.00000000000000E+00   0.00000000000000E+00   0.00000000000000E+00   0.00000000000000E+00
      3.32720578946328E-18   0.00000000000000E+00   0.00000000000000E+00   0.00000000000000E+00   0.00000000000000E+00
      4.04639118738077E-17  -1.08837526814238E-33   4.04639118738077E-17  -1.23144144872799E-17   9.38785386277484E-03
      9.38785362175002E-03   0.00000000000000E+00   0.00000000000000E+00   1.07659685714757E-09   4.34259422547949E-34
      1.07659685714757E-09   4.14900109598982E-18
      1.97757077255497E-01
      0.00000000000000E+00   2.46399800046531E-10   0.00000000000000E+00   0.00000000000000E+00  -1.11477886358911E-09