DF-ISE text

Info {
  version   = 1.0
  type      = xyplot
  datasets  = [
    "time"
    "source OuterVoltage" "source InnerVoltage" "source QuasiFermiPotential" "source DisplacementCurrent" "source eCurrent"
    "source hCurrent" "source TotalCurrent" "source Charge" "gate OuterVoltage" "gate InnerVoltage"
    "gate QuasiFermiPotential" "gate DisplacementCurrent" "gate eCurrent" "gate hCurrent" "gate TotalCurrent"
    "gate Charge" "substrate OuterVoltage" "substrate InnerVoltage" "substrate QuasiFermiPotential" "substrate DisplacementCurrent"
    "substrate eCurrent" "substrate hCurrent" "substrate TotalCurrent" "substrate Charge" "drain OuterVoltage"
    "drain InnerVoltage" "drain QuasiFermiPotential" "drain DisplacementCurrent" "drain eCurrent" "drain hCurrent"
    "drain TotalCurrent" "drain Charge" ]
  functions = [
    Time
    OuterVoltage InnerVoltage QuasiFermiPotential DisplacementCurrent eCurrent
    hCurrent TotalCurrent Charge OuterVoltage InnerVoltage
    QuasiFermiPotential DisplacementCurrent eCurrent hCurrent TotalCurrent
    Charge OuterVoltage InnerVoltage QuasiFermiPotential DisplacementCurrent
    eCurrent hCurrent TotalCurrent Charge OuterVoltage
    InnerVoltage QuasiFermiPotential DisplacementCurrent eCurrent hCurrent
    TotalCurrent Charge ]
}

Data {
      0.00000000000000E+00
      0.00000000000000E+00   0.00000000000000E+00   0.00000000000000E+00   0.00000000000000E+00  -7.73492305539565E-21
      5.32709329973137E-34  -7.73492305539511E-21   5.12055775274803E-18   0.00000000000000E+00   0.00000000000000E+00
      0.00000000000000E+00   0.00000000000000E+00   0.00000000000000E+00   0.00000000000000E+00   0.00000000000000E+00
      1.98255048532453E-18   0.00000000000000E+00   0.00000000000000E+00   0.00000000000000E+00   0.00000000000000E+00
      2.03691158664837E-20  -1.00843253475619E-33   2.03691158664827E-20  -1.18955619091785E-17   0.00000000000000E+00
      0.00000000000000E+00   0.00000000000000E+00   0.00000000000000E+00  -1.26341928110880E-20   4.75723204783055E-34
     -1.26341928110876E-20   4.79245367110600E-18
      0.00000000000000E+00
      0.00000000000000E+00   0.00000000000000E+00   0.00000000000000E+00   0.00000000000000E+00  -6.45888312459986E-20
      5.24909684118684E-34  -6.45888312459981E-20   5.11860206383257E-18   0.00000000000000E+00   0.00000000000000E+00
      0.00000000000000E+00   0.00000000000000E+00   0.00000000000000E+00   0.00000000000000E+00   0.00000000000000E+00
      1.97733169106111E-18   0.00000000000000E+00   0.00000000000000E+00   0.00000000000000E+00   0.00000000000000E+00
      4.23665211716847E-19  -9.88609723343013E-34   4.23665211716846E-19  -1.18867485210013E-17   0.00000000000000E+00
      0.00000000000000E+00   0.00000000000000E+00   0.00000000000000E+00  -3.59076380470848E-19   4.63700039224330E-34
     -3.59076380470848E-19   4.79081476610768E-18
      1.00000000000000E-03
      0.00000000000000E+00   3.08699752620861E-12   0.00000000000000E+00   0.00000000000000E+00  -1.53249914397067E-11
      5.61037300262577E-34  -1.53249914397067E-11   5.11856964129631E-18   0.00000000000000E+00   0.00000000000000E+00
      0.00000000000000E+00   0.00000000000000E+00   0.00000000000000E+00   0.00000000000000E+00   0.00000000000000E+00
      1.97665901710228E-18   0.00000000000000E+00   0.00000000000000E+00   0.00000000000000E+00   0.00000000000000E+00
     -3.35908814392132E-19  -1.04099511346822E-33  -3.35908814392133E-19  -1.18867094730916E-17   5.00000000000000E-05
      4.99999968974818E-05   0.00000000000000E+00   0.00000000000000E+00   1.53249917756155E-11   4.79957813205642E-34
      1.53249917756155E-11   4.79148081469306E-18
      2.09333333333333E-03
      0.00000000000000E+00   6.45129300810829E-12   0.00000000000000E+00   0.00000000000000E+00  -3.20265810780615E-11
      5.42148552233171E-34  -3.20265810780615E-11   5.11853419312308E-18   0.00000000000000E+00   0.00000000000000E+00
      0.00000000000000E+00   0.00000000000000E+00   0.00000000000000E+00   0.00000000000000E+00   0.00000000000000E+00
      1.97592357003045E-18   0.00000000000000E+00   0.00000000000000E+00   0.00000000000000E+00   0.00000000000000E+00
     -7.15334896794872E-20  -1.05462822512450E-33  -7.15334896794882E-20  -1.18866668070056E-17   1.04666666666667E-04
      1.04666660182958E-04   0.00000000000000E+00   0.00000000000000E+00   3.20265811495950E-11   5.12479672891327E-34
      3.20265811495950E-11   4.79220904385205E-18
      3.29600000000000E-03
      0.00000000000000E+00   1.01383918554516E-11   0.00000000000000E+00   0.00000000000000E+00  -5.03306658600180E-11
      5.43423550968218E-34  -5.03306658600180E-11   5.11849520069796E-18   0.00000000000000E+00   0.00000000000000E+00
      0.00000000000000E+00   0.00000000000000E+00   0.00000000000000E+00   0.00000000000000E+00   0.00000000000000E+00
      1.97511459005348E-18   0.00000000000000E+00   0.00000000000000E+00   0.00000000000000E+00   0.00000000000000E+00
      3.85470704224959E-20  -1.02973163765487E-33   3.85470704224948E-20  -1.18866199060154E-17   1.64800000000000E-04
      1.64799989810678E-04   0.00000000000000E+00   0.00000000000000E+00   5.03306658214709E-11   4.86308086686649E-34
      5.03306658214709E-11   4.79301011526397E-18
      4.61893333333333E-03
      0.00000000000000E+00   1.41773145668403E-11   0.00000000000000E+00   0.00000000000000E+00  -7.03813411828364E-11
      5.42498065438453E-34  -7.03813411828364E-11   5.11845230971622E-18   0.00000000000000E+00   0.00000000000000E+00
      0.00000000000000E+00   0.00000000000000E+00   0.00000000000000E+00   0.00000000000000E+00   0.00000000000000E+00
      1.97422472634667E-18   0.00000000000000E+00   0.00000000000000E+00   0.00000000000000E+00   0.00000000000000E+00
     -5.30940765847019E-20  -1.03602681303059E-33  -5.30940765847029E-20  -1.18865683532618E-17   2.30946666666667E-04
      2.30946652418137E-04   0.00000000000000E+00   0.00000000000000E+00   7.03813412359305E-11   4.93528747592142E-34
      7.03813412359305E-11   4.79389131719889E-18
      6.07416000000000E-03
      0.00000000000000E+00   1.85993980789383E-11   0.00000000000000E+00   0.00000000000000E+00  -9.23340096782820E-11
      5.36781161171831E-34  -9.23340096782820E-11   5.11840513046760E-18   0.00000000000000E+00   0.00000000000000E+00
      0.00000000000000E+00   0.00000000000000E+00   0.00000000000000E+00   0.00000000000000E+00   0.00000000000000E+00
      1.97324589351652E-18   0.00000000000000E+00   0.00000000000000E+00   0.00000000000000E+00   0.00000000000000E+00
     -1.82693018859614E-19  -1.00951405978383E-33  -1.82693018859615E-19  -1.18865116915834E-17   3.03708000000000E-04
      3.03707981307205E-04   0.00000000000000E+00   0.00000000000000E+00   9.23340098609750E-11   4.72732898612003E-34
      9.23340098609750E-11   4.79486066759927E-18
      7.67490933333333E-03
      0.00000000000000E+00   2.34382648806313E-11   0.00000000000000E+00   0.00000000000000E+00  -1.16355722462917E-10
      5.31268536712097E-34  -1.16355722462917E-10   5.11835323430102E-18   0.00000000000000E+00   0.00000000000000E+00
      0.00000000000000E+00   0.00000000000000E+00   0.00000000000000E+00   0.00000000000000E+00   0.00000000000000E+00
      1.97216919825015E-18   0.00000000000000E+00   0.00000000000000E+00   0.00000000000000E+00   0.00000000000000E+00
      5.77993041409093E-20  -1.02142119700845E-33   5.77993041409083E-20  -1.18864494197741E-17   3.83745466666667E-04
      3.83745443110709E-04   0.00000000000000E+00   0.00000000000000E+00   1.16355722405118E-10   4.90152660296356E-34
      1.16355722405118E-10   4.79592698722297E-18
      9.43573360000000E-03
      0.00000000000000E+00   2.87300262093474E-11   0.00000000000000E+00   0.00000000000000E+00  -1.42625480711097E-10
      5.44793781369053E-34  -1.42625480711097E-10   5.11829614973701E-18   0.00000000000000E+00   0.00000000000000E+00
      0.00000000000000E+00   0.00000000000000E+00   0.00000000000000E+00   0.00000000000000E+00   0.00000000000000E+00
      1.97098485865229E-18   0.00000000000000E+00   0.00000000000000E+00   0.00000000000000E+00   0.00000000000000E+00
      5.61113890575769E-20  -1.02525368028102E-33   5.61113890575759E-20  -1.18863809885269E-17   4.71786680000000E-04
      4.71786651125760E-04   0.00000000000000E+00   0.00000000000000E+00   1.42625480654986E-10   4.80459898911971E-34
      1.42625480654986E-10   4.79709998013758E-18
      1.13726402933333E-02
      0.00000000000000E+00   3.45131617588355E-11   0.00000000000000E+00   0.00000000000000E+00  -1.71334434060142E-10
      5.45663568738398E-34  -1.71334434060142E-10   5.11823335819231E-18   0.00000000000000E+00   0.00000000000000E+00
      0.00000000000000E+00   0.00000000000000E+00   0.00000000000000E+00   0.00000000000000E+00   0.00000000000000E+00
      1.96968211554111E-18   0.00000000000000E+00   0.00000000000000E+00   0.00000000000000E+00   0.00000000000000E+00
     -4.59060573647815E-20  -1.00795857455422E-33  -4.59060573647825E-20  -1.18863057960409E-17   5.68632014666667E-04
      5.68631979980287E-04   0.00000000000000E+00   0.00000000000000E+00   1.71334434106048E-10   4.62295005815822E-34
      1.71334434106048E-10   4.79839032230748E-18
      1.35032376560000E-02
      0.00000000000000E+00   4.08286659805162E-11   0.00000000000000E+00   0.00000000000000E+00  -2.02685920873718E-10
      5.22151767478810E-34  -2.02685920873718E-10   5.11816428927885E-18   0.00000000000000E+00   0.00000000000000E+00
      0.00000000000000E+00   0.00000000000000E+00   0.00000000000000E+00   0.00000000000000E+00   0.00000000000000E+00
      1.96824913490626E-18   0.00000000000000E+00   0.00000000000000E+00   0.00000000000000E+00   0.00000000000000E+00
     -7.87202931662201E-20  -1.00216423268602E-33  -7.87202931662211E-20  -1.18862231832783E-17   6.75161882800000E-04
      6.75161841766464E-04   0.00000000000000E+00   0.00000000000000E+00   2.02685920952439E-10   4.80012465207213E-34
      2.02685920952439E-10   4.79980975909316E-18
      1.58468947549333E-02
      0.00000000000000E+00   4.77199497364627E-11   0.00000000000000E+00   0.00000000000000E+00  -2.36895296738872E-10
      5.10623994295029E-34  -2.36895296738872E-10   5.11808831563427E-18   0.00000000000000E+00   0.00000000000000E+00
      0.00000000000000E+00   0.00000000000000E+00   0.00000000000000E+00   0.00000000000000E+00   0.00000000000000E+00
      1.96667290065099E-18   0.00000000000000E+00   0.00000000000000E+00   0.00000000000000E+00   0.00000000000000E+00
      2.21163923967671E-19  -9.96615804180131E-34   2.21163923967670E-19  -1.18861324288499E-17   7.92344737746667E-04
      7.92344689787345E-04   0.00000000000000E+00   0.00000000000000E+00   2.36895296517708E-10   4.85991809885102E-34
      2.36895296517708E-10   4.80137121256463E-18
      1.84249175637600E-02
      0.00000000000000E+00   5.52327411395954E-11   0.00000000000000E+00   0.00000000000000E+00  -2.74189493978446E-10
      5.24721255305840E-34  -2.74189493978446E-10   5.11800474723783E-18   0.00000000000000E+00   0.00000000000000E+00
      0.00000000000000E+00   0.00000000000000E+00   0.00000000000000E+00   0.00000000000000E+00   0.00000000000000E+00
      1.96493909665373E-18   0.00000000000000E+00   0.00000000000000E+00   0.00000000000000E+00   0.00000000000000E+00
      4.04911819151707E-19  -9.78169788991978E-34   4.04911819151706E-19  -1.18860327435142E-17   9.21245878188001E-04
      9.21245822678285E-04   0.00000000000000E+00   0.00000000000000E+00   2.74189493573535E-10   4.53448533686137E-34
      2.74189493573535E-10   4.80308889962260E-18
      2.12607426534693E-02
      0.00000000000000E+00   6.34149587591783E-11   0.00000000000000E+00   0.00000000000000E+00  -3.14806273485540E-10
      5.28532949917701E-34  -3.14806273485540E-10   5.11791282516061E-18   0.00000000000000E+00   0.00000000000000E+00
      0.00000000000000E+00   0.00000000000000E+00   0.00000000000000E+00   0.00000000000000E+00   0.00000000000000E+00
      1.96303197709138E-18   0.00000000000000E+00   0.00000000000000E+00   0.00000000000000E+00   0.00000000000000E+00
      2.96140931572520E-17  -1.00696680702817E-33   2.96140931572520E-17  -1.18859232642772E-17   1.06303713267347E-03
      1.06303706894060E-03   0.00000000000000E+00   0.00000000000000E+00   3.14806243871447E-10   4.78433857110464E-34
      3.14806243871447E-10   4.80497846202520E-18
      2.43801502521496E-02
      0.00000000000000E+00   7.23164702235886E-11   0.00000000000000E+00   0.00000000000000E+00  -3.58992892810858E-10
      5.11494672659965E-34  -3.58992892810858E-10   5.11781171469406E-18   0.00000000000000E+00   0.00000000000000E+00
      0.00000000000000E+00   0.00000000000000E+00   0.00000000000000E+00   0.00000000000000E+00   0.00000000000000E+00
      1.96093422385918E-18   0.00000000000000E+00   0.00000000000000E+00   0.00000000000000E+00   0.00000000000000E+00
      1.33910841319086E-18  -9.80821228931456E-34   1.33910841319086E-18  -1.18858030480805E-17   1.21900751260748E-03
      1.21900743992860E-03   0.00000000000000E+00   0.00000000000000E+00   3.58992891471750E-10   4.69326556271491E-34
      3.58992891471750E-10   4.80705710952732E-18
      2.78114986106979E-02
      0.00000000000000E+00   8.19887451610003E-11   0.00000000000000E+00   0.00000000000000E+00  -4.07004686832825E-10
      5.55755955269112E-34  -4.07004686832825E-10   5.11770049779509E-18   0.00000000000000E+00   0.00000000000000E+00
      0.00000000000000E+00   0.00000000000000E+00   0.00000000000000E+00   0.00000000000000E+00   0.00000000000000E+00
      1.95862678981404E-18   0.00000000000000E+00   0.00000000000000E+00   0.00000000000000E+00   0.00000000000000E+00
      2.31004524229196E-18  -1.02620970671274E-33   2.31004524229196E-18  -1.18856710650792E-17   1.39057493053490E-03
      1.39057484813542E-03   0.00000000000000E+00   0.00000000000000E+00   4.07004684522780E-10   4.70453751443625E-34
      4.07004684522780E-10   4.80934377747010E-18
      3.15859818051010E-02
      0.00000000000000E+00   9.24843813455631E-11   0.00000000000000E+00   0.00000000000000E+00  -4.59102479103823E-10
      5.40287482348972E-34  -4.59102479103823E-10   5.11757816478054E-18   0.00000000000000E+00   0.00000000000000E+00
      0.00000000000000E+00   0.00000000000000E+00   0.00000000000000E+00   0.00000000000000E+00   0.00000000000000E+00
      1.95608872643503E-18   0.00000000000000E+00   0.00000000000000E+00   0.00000000000000E+00   0.00000000000000E+00
      3.09400759772544E-18  -1.01376362279522E-33   3.09400759772543E-18  -1.18855261915050E-17   1.57929909025505E-03
      1.57929899730755E-03   0.00000000000000E+00   0.00000000000000E+00   4.59102476009816E-10   4.73476140446245E-34
      4.59102476009816E-10   4.81185930028944E-18
      3.57379133189445E-02
      0.00000000000000E+00   1.03856512176929E-10   0.00000000000000E+00   0.00000000000000E+00  -5.15549698195058E-10
      5.46656262814010E-34  -5.15549698195058E-10   5.11744360519638E-18   0.00000000000000E+00   0.00000000000000E+00
      0.00000000000000E+00   0.00000000000000E+00   0.00000000000000E+00   0.00000000000000E+00   0.00000000000000E+00
      1.95329699436327E-18   0.00000000000000E+00   0.00000000000000E+00   0.00000000000000E+00   0.00000000000000E+00
      4.64007741925729E-18  -1.00888608623187E-33   4.64007741925729E-18  -1.18853672021286E-17   1.78689566594722E-03
      1.78689556157086E-03   0.00000000000000E+00   0.00000000000000E+00   5.15549693554980E-10   4.62229823417858E-34
      5.15549693554980E-10   4.81462660256894E-18
      4.03050379841723E-02
      0.00000000000000E+00   1.16158038598160E-10   0.00000000000000E+00   0.00000000000000E+00  -5.76608457563618E-10
      5.54996186581019E-34  -5.76608457563618E-10   5.11729559778112E-18   0.00000000000000E+00   0.00000000000000E+00
      0.00000000000000E+00   0.00000000000000E+00   0.00000000000000E+00   0.00000000000000E+00   0.00000000000000E+00
      1.95022625513877E-18   0.00000000000000E+00   0.00000000000000E+00   0.00000000000000E+00   0.00000000000000E+00
      6.64688504814684E-18  -1.01269947331692E-33   6.64688504814684E-18  -1.18851927623545E-17   2.01525189920861E-03
      2.01525178246943E-03   0.00000000000000E+00   0.00000000000000E+00   5.76608450916733E-10   4.57703286735905E-34
      5.76608450916733E-10   4.81767090943461E-18
      4.53288751159228E-02
      0.00000000000000E+00   1.29440612301333E-10   0.00000000000000E+00   0.00000000000000E+00  -6.42534762657832E-10
      5.33097020513403E-34  -6.42534762657832E-10   5.11713279943246E-18   0.00000000000000E+00   0.00000000000000E+00
      0.00000000000000E+00   0.00000000000000E+00   0.00000000000000E+00   0.00000000000000E+00   0.00000000000000E+00
      1.94684864224728E-18   0.00000000000000E+00   0.00000000000000E+00   0.00000000000000E+00   0.00000000000000E+00
      9.51909080916209E-18  -9.87565604216660E-34   9.51909080916209E-18  -1.18850014199361E-17   2.26644375579614E-03
      2.26644362570825E-03   0.00000000000000E+00   0.00000000000000E+00   6.42534753138742E-10   4.54468583703257E-34
      6.42534753138742E-10   4.82101997825634E-18
      5.08550959608485E-02
      0.00000000000000E+00   1.43753483198010E-10   0.00000000000000E+00   0.00000000000000E+00  -7.13572510193608E-10
      5.32107165391808E-34  -7.13572510193608E-10   5.11695373308082E-18   0.00000000000000E+00   0.00000000000000E+00
      0.00000000000000E+00   0.00000000000000E+00   0.00000000000000E+00   0.00000000000000E+00   0.00000000000000E+00
      1.94313350950084E-18   0.00000000000000E+00   0.00000000000000E+00   0.00000000000000E+00   0.00000000000000E+00
     -4.40198545682910E-18  -9.71229228449991E-34  -4.40198545682910E-18  -1.18847915964531E-17   2.54275479804242E-03
      2.54275465357047E-03   0.00000000000000E+00   0.00000000000000E+00   7.13572514595593E-10   4.39122063058182E-34
      7.13572514595593E-10   4.82470435387143E-18
      5.69339388902666E-02
      0.00000000000000E+00   1.59142032341793E-10   0.00000000000000E+00   0.00000000000000E+00  -7.89946372147174E-10
      5.20938857025370E-34  -7.89946372147174E-10   5.11675677436056E-18   0.00000000000000E+00   0.00000000000000E+00
      0.00000000000000E+00   0.00000000000000E+00   0.00000000000000E+00   0.00000000000000E+00   0.00000000000000E+00
      1.93904715444581E-18   0.00000000000000E+00   0.00000000000000E+00   0.00000000000000E+00   0.00000000000000E+00
      2.05684835621953E-17  -9.97144727787608E-34   2.05684835621953E-17  -1.18845615785154E-17   2.84669694451333E-03
      2.84669678457636E-03   0.00000000000000E+00   0.00000000000000E+00   7.89946351578691E-10   4.76205870762238E-34
      7.89946351578691E-10   4.82875764970901E-18
      6.36206661126266E-02
      0.00000000000000E+00   1.75646082147723E-10   0.00000000000000E+00   0.00000000000000E+00  -8.71853389333493E-10
      5.26563494700283E-34  -8.71853389333493E-10   5.11654013696046E-18   0.00000000000000E+00   0.00000000000000E+00
      0.00000000000000E+00   0.00000000000000E+00   0.00000000000000E+00   0.00000000000000E+00   0.00000000000000E+00
      1.93455251438857E-18   0.00000000000000E+00   0.00000000000000E+00   0.00000000000000E+00   0.00000000000000E+00
      1.10352085582001E-16  -9.90315180441758E-34   1.10352085582001E-16  -1.18843095088584E-17   3.18103330563133E-03
      3.18103312910840E-03   0.00000000000000E+00   0.00000000000000E+00   8.71853278981408E-10   4.63751685741475E-34
      8.71853278981408E-10   4.83321685750929E-18
      7.09760660572226E-02
      0.00000000000000E+00   1.93297837607148E-10   0.00000000000000E+00   0.00000000000000E+00  -9.59452464400870E-10
      5.32618465682804E-34  -9.59452464400870E-10   5.11630185652907E-18   0.00000000000000E+00   0.00000000000000E+00
      0.00000000000000E+00   0.00000000000000E+00   0.00000000000000E+00   0.00000000000000E+00   0.00000000000000E+00
      1.92960883241562E-18   0.00000000000000E+00   0.00000000000000E+00   0.00000000000000E+00   0.00000000000000E+00
      9.73468941862216E-17  -9.56146593690403E-34   9.73468941862216E-17  -1.18840333775664E-17   3.54880330286113E-03
      3.54880310859896E-03   0.00000000000000E+00   0.00000000000000E+00   9.59452367053976E-10   4.23528128007599E-34
      9.59452367053976E-10   4.83812268862171E-18
      7.90670059962782E-02
      0.00000000000000E+00   2.12119702333665E-10   0.00000000000000E+00   0.00000000000000E+00  -1.05285397049081E-09
      5.05858180407190E-34  -1.05285397049081E-09   5.11603977298115E-18   0.00000000000000E+00   0.00000000000000E+00
      0.00000000000000E+00   0.00000000000000E+00   0.00000000000000E+00   0.00000000000000E+00   0.00000000000000E+00
      1.92417129020773E-18   0.00000000000000E+00   0.00000000000000E+00   0.00000000000000E+00   0.00000000000000E+00
      9.90758254855689E-17  -9.34729636328218E-34   9.90758254855689E-17  -1.18837310132185E-17   3.95335029981391E-03
      3.95335008663674E-03   0.00000000000000E+00   0.00000000000000E+00   1.05285387141498E-09   4.28871455921027E-34
      1.05285387141498E-09   4.84351995002963E-18
      8.79670399292394E-02
      0.00000000000000E+00   2.32121532974424E-10   0.00000000000000E+00   0.00000000000000E+00  -1.15210603669522E-09
      5.51514594885281E-34  -1.15210603669522E-09   5.11575151106350E-18   0.00000000000000E+00   0.00000000000000E+00
      0.00000000000000E+00   0.00000000000000E+00   0.00000000000000E+00   0.00000000000000E+00   0.00000000000000E+00
      1.91819060480269E-18   0.00000000000000E+00   0.00000000000000E+00   0.00000000000000E+00   0.00000000000000E+00
      9.24815399228261E-17  -9.69974978176330E-34   9.24815399228261E-17  -1.18834000747450E-17   4.39835199646197E-03
      4.39835176318413E-03   0.00000000000000E+00   0.00000000000000E+00   1.15210594421368E-09   4.18460383291049E-34
      1.15210594421368E-09   4.84945795887875E-18
      9.77570772554967E-02
      0.00000000000000E+00   2.53297842415967E-10   0.00000000000000E+00   0.00000000000000E+00  -1.25718068986572E-09
      5.11495302103198E-34  -1.25718068986572E-09   5.11543445899764E-18   0.00000000000000E+00   0.00000000000000E+00
      0.00000000000000E+00   0.00000000000000E+00   0.00000000000000E+00   0.00000000000000E+00   0.00000000000000E+00
      1.91161258543461E-18   0.00000000000000E+00   0.00000000000000E+00   0.00000000000000E+00   0.00000000000000E+00
      1.79413620835347E-16  -9.22360385508631E-34   1.79413620835347E-16  -1.18830380438063E-17   4.88785386277484E-03
      4.88785360821623E-03   0.00000000000000E+00   0.00000000000000E+00   1.25718051045210E-09   4.10865083405433E-34
      1.25718051045210E-09   4.85599099937410E-18
      1.07757077255497E-01
      0.00000000000000E+00   2.74063142594580E-10   0.00000000000000E+00   0.00000000000000E+00  -1.36021032846870E-09
      5.62982236775925E-34  -1.36021032846870E-09   5.11511064595794E-18   0.00000000000000E+00   0.00000000000000E+00
      0.00000000000000E+00   0.00000000000000E+00   0.00000000000000E+00   0.00000000000000E+00   0.00000000000000E+00
      1.90489427915404E-18   0.00000000000000E+00   0.00000000000000E+00   0.00000000000000E+00   0.00000000000000E+00
      1.55305302831455E-16  -9.61518857876498E-34   1.55305302831455E-16  -1.18826704016313E-17   5.38785386277483E-03
      5.38785358734870E-03   0.00000000000000E+00   0.00000000000000E+00   1.36021017316340E-09   3.98536621100573E-34
      1.36021017316340E-09   4.86266547651938E-18
      1.17757077255497E-01
      0.00000000000000E+00   2.93983212725163E-10   0.00000000000000E+00   0.00000000000000E+00  -1.45904139073338E-09
      5.33479211981924E-34  -1.45904139073338E-09   5.11478687173462E-18   0.00000000000000E+00   0.00000000000000E+00
      0.00000000000000E+00   0.00000000000000E+00   0.00000000000000E+00   0.00000000000000E+00   0.00000000000000E+00
      1.89817676450961E-18   0.00000000000000E+00   0.00000000000000E+00   0.00000000000000E+00   0.00000000000000E+00
      1.64552281856673E-16  -9.32432606501985E-34   1.64552281856673E-16  -1.18823049233037E-17   5.88785386277483E-03
      5.88785356733072E-03   0.00000000000000E+00   0.00000000000000E+00   1.45904122618110E-09   3.98953394520061E-34
      1.45904122618110E-09   4.86934128705947E-18
      1.27757077255497E-01
      0.00000000000000E+00   3.13087102566589E-10   0.00000000000000E+00   0.00000000000000E+00  -1.55381866687470E-09
      5.10638502337311E-34  -1.55381866687470E-09   5.11446313602472E-18   0.00000000000000E+00   0.00000000000000E+00
      0.00000000000000E+00   0.00000000000000E+00   0.00000000000000E+00   0.00000000000000E+00   0.00000000000000E+00
      1.89146003575511E-18   0.00000000000000E+00   0.00000000000000E+00   0.00000000000000E+00   0.00000000000000E+00
      9.55684493742784E-17  -9.03097774546135E-34   9.55684493742784E-17  -1.18819415967287E-17   6.38785386277483E-03
      6.38785354813312E-03   0.00000000000000E+00   0.00000000000000E+00   1.55381857130625E-09   3.92459272208823E-34
      1.55381857130625E-09   4.87601842494882E-18
      1.37757077255497E-01
      0.00000000000000E+00   3.31403403466827E-10   0.00000000000000E+00   0.00000000000000E+00  -1.64468493970947E-09
      5.45312699681294E-34  -1.64468493970947E-09   5.11413943852440E-18   0.00000000000000E+00   0.00000000000000E+00
      0.00000000000000E+00   0.00000000000000E+00   0.00000000000000E+00   0.00000000000000E+00   0.00000000000000E+00
      1.88474408719368E-18   0.00000000000000E+00   0.00000000000000E+00   0.00000000000000E+00   0.00000000000000E+00
      2.18167765091296E-16  -9.26871353855913E-34   2.18167765091296E-16  -1.18815804099012E-17   6.88785386277483E-03
      6.88785352972712E-03   0.00000000000000E+00   0.00000000000000E+00   1.64468472154170E-09   3.81558654174620E-34
      1.64468472154170E-09   4.88269688418315E-18
      1.47757077255497E-01
      0.00000000000000E+00   3.48960187404053E-10   0.00000000000000E+00   0.00000000000000E+00  -1.73177991086222E-09
      5.14370213466455E-34  -1.73177991086222E-09   5.11381577893313E-18   0.00000000000000E+00   0.00000000000000E+00
      0.00000000000000E+00   0.00000000000000E+00   0.00000000000000E+00   0.00000000000000E+00   0.00000000000000E+00
      1.87802891324362E-18   0.00000000000000E+00   0.00000000000000E+00   0.00000000000000E+00   0.00000000000000E+00
      1.50565895386948E-16  -9.01591643802540E-34   1.50565895386948E-16  -1.18812213510157E-17   7.38785386277483E-03
      7.38785351208451E-03   0.00000000000000E+00   0.00000000000000E+00   1.73177976029632E-09   3.87221430336085E-34
      1.73177976029632E-09   4.88937665883898E-18
      1.57757077255497E-01
      0.00000000000000E+00   3.65784998858791E-10   0.00000000000000E+00   0.00000000000000E+00  -1.81524111876644E-09
      5.25241520438249E-34  -1.81524111876644E-09   5.11349215694177E-18   0.00000000000000E+00   0.00000000000000E+00
      0.00000000000000E+00   0.00000000000000E+00   0.00000000000000E+00   0.00000000000000E+00   0.00000000000000E+00
      1.87131450822469E-18   0.00000000000000E+00   0.00000000000000E+00   0.00000000000000E+00   0.00000000000000E+00
      1.49246380839915E-16  -8.81547782574822E-34   1.49246380839915E-16  -1.18808644081134E-17   7.88785386277484E-03
      7.88785349517759E-03   0.00000000000000E+00   0.00000000000000E+00   1.81524096952006E-09   3.56306262136574E-34
      1.81524096952006E-09   4.89605774294689E-18
      1.67757077255497E-01
      0.00000000000000E+00   3.81904714202060E-10   0.00000000000000E+00   0.00000000000000E+00  -1.89520263089532E-09
      5.02956426235679E-34  -1.89520263089532E-09   5.11316857224143E-18   0.00000000000000E+00   0.00000000000000E+00
      0.00000000000000E+00   0.00000000000000E+00   0.00000000000000E+00   0.00000000000000E+00   0.00000000000000E+00
      1.86460086651117E-18   0.00000000000000E+00   0.00000000000000E+00   0.00000000000000E+00   0.00000000000000E+00
      1.47424820736886E-16  -8.61319989543662E-34   1.47424820736886E-16  -1.18805095693384E-17   8.38785386277484E-03
      8.38785347897936E-03   0.00000000000000E+00   0.00000000000000E+00   1.89520248347050E-09   3.58363563307981E-34
      1.89520248347050E-09   4.90274013058574E-18
      1.77757077255497E-01
      0.00000000000000E+00   3.97345588024137E-10   0.00000000000000E+00   0.00000000000000E+00  -1.97179518624173E-09
      5.43858825280664E-34  -1.97179518624173E-09   5.11284502452450E-18   0.00000000000000E+00   0.00000000000000E+00
      0.00000000000000E+00   0.00000000000000E+00   0.00000000000000E+00   0.00000000000000E+00   0.00000000000000E+00
      1.85788798252957E-18   0.00000000000000E+00   0.00000000000000E+00   0.00000000000000E+00   0.00000000000000E+00
      1.45639959206763E-16  -9.09368415125634E-34   1.45639959206763E-16  -1.18801568229282E-17   8.88785386277484E-03
      8.88785346346341E-03   0.00000000000000E+00   0.00000000000000E+00   1.97179504060177E-09   3.65509589844969E-34
      1.97179504060177E-09   4.90942381587408E-18
      1.87757077255497E-01
      0.00000000000000E+00   4.12133109271561E-10   0.00000000000000E+00   0.00000000000000E+00  -2.04514587051062E-09
      5.36302930187732E-34  -2.04514587051062E-09   5.11252151348347E-18   0.00000000000000E+00   0.00000000000000E+00
      0.00000000000000E+00   0.00000000000000E+00   0.00000000000000E+00   0.00000000000000E+00   0.00000000000000E+00
      1.85117585073960E-18   0.00000000000000E+00   0.00000000000000E+00   0.00000000000000E+00   0.00000000000000E+00
     -9.71162075145287E-20  -8.87446858305290E-34  -9.71162075145296E-20  -1.18798061571840E-17   9.38785386277484E-03
      9.38785344860418E-03   0.00000000000000E+00   0.00000000000000E+00   2.04514587060774E-09   3.51143928117558E-34
      2.04514587060774E-09   4.91610879296088E-18
      1.97757077255497E-01
      0.00000000000000E+00   4.26292189000531E-10   0.00000000000000E+00   0.00000000000000E+00  -2.11537906789033E-09