DF-ISE text

Info {
  version   = 1.0
  type      = xyplot
  datasets  = [
    "time"
    "source OuterVoltage" "source InnerVoltage" "source QuasiFermiPotential" "source DisplacementCurrent" "source eCurrent"
    "source hCurrent" "source TotalCurrent" "source Charge" "gate OuterVoltage" "gate InnerVoltage"
    "gate QuasiFermiPotential" "gate DisplacementCurrent" "gate eCurrent" "gate hCurrent" "gate TotalCurrent"
    "gate Charge" "substrate OuterVoltage" "substrate InnerVoltage" "substrate QuasiFermiPotential" "substrate DisplacementCurrent"
    "substrate eCurrent" "substrate hCurrent" "substrate TotalCurrent" "substrate Charge" "drain OuterVoltage"
    "drain InnerVoltage" "drain QuasiFermiPotential" "drain DisplacementCurrent" "drain eCurrent" "drain hCurrent"
    "drain TotalCurrent" "drain Charge" ]
  functions = [
    Time
    OuterVoltage InnerVoltage QuasiFermiPotential DisplacementCurrent eCurrent
    hCurrent TotalCurrent Charge OuterVoltage InnerVoltage
    QuasiFermiPotential DisplacementCurrent eCurrent hCurrent TotalCurrent
    Charge OuterVoltage InnerVoltage QuasiFermiPotential DisplacementCurrent
    eCurrent hCurrent TotalCurrent Charge OuterVoltage
    InnerVoltage QuasiFermiPotential DisplacementCurrent eCurrent hCurrent
    TotalCurrent Charge ]
}

Data {
      0.00000000000000E+00
      0.00000000000000E+00   0.00000000000000E+00   0.00000000000000E+00   0.00000000000000E+00  -1.27989831619644E-22
      6.84353660534072E-34  -1.27989831618960E-22   5.06590833640368E-18   0.00000000000000E+00   0.00000000000000E+00
      0.00000000000000E+00   0.00000000000000E+00   0.00000000000000E+00   0.00000000000000E+00   0.00000000000000E+00
      3.52014089764082E-18   0.00000000000000E+00   0.00000000000000E+00   0.00000000000000E+00   0.00000000000000E+00
      1.09680219169495E-20  -1.34339065571880E-33   1.09680219169481E-20  -1.28685220736747E-17   0.00000000000000E+00
      0.00000000000000E+00   0.00000000000000E+00   0.00000000000000E+00  -1.08400320853298E-20   6.59036995184731E-34
     -1.08400320853292E-20   4.28247283963020E-18
      0.00000000000000E+00
      0.00000000000000E+00   0.00000000000000E+00   0.00000000000000E+00   0.00000000000000E+00  -2.06989819087389E-20
      7.11421983885534E-34  -2.06989819087382E-20   5.06406350113474E-18   0.00000000000000E+00   0.00000000000000E+00
      0.00000000000000E+00   0.00000000000000E+00   0.00000000000000E+00   0.00000000000000E+00   0.00000000000000E+00
      3.51409905456356E-18   0.00000000000000E+00   0.00000000000000E+00   0.00000000000000E+00   0.00000000000000E+00
      1.91529974780855E-19  -1.39391915500166E-33   1.91529974780854E-19  -1.28593008390078E-17   0.00000000000000E+00
      0.00000000000000E+00   0.00000000000000E+00   0.00000000000000E+00  -1.70830992872117E-19   6.82497171116125E-34
     -1.70830992872116E-19   4.28113828330946E-18
      1.00000000000000E-03
      0.00000000000000E+00   2.50011452087554E-11   0.00000000000000E+00   0.00000000000000E+00  -1.21913845318013E-10
      6.70489867259594E-34  -1.21913845318013E-10   5.06371784293154E-18   0.00000000000000E+00   0.00000000000000E+00
      0.00000000000000E+00   0.00000000000000E+00   0.00000000000000E+00   0.00000000000000E+00   0.00000000000000E+00
      3.50375857949706E-18   0.00000000000000E+00   0.00000000000000E+00   0.00000000000000E+00   0.00000000000000E+00
      1.33945300351893E-19  -1.30801727978309E-33   1.33945300351892E-19  -1.28589523142969E-17   8.60000000000000E-04
      8.59999974711959E-04   0.00000000000000E+00   0.00000000000000E+00   1.21913845184068E-10   6.37527412523496E-34
      1.21913845184068E-10   4.29147589186833E-18
      2.08666666666667E-03
      0.00000000000000E+00   5.05617898474659E-11   0.00000000000000E+00   0.00000000000000E+00  -2.46544200223358E-10
      6.77370346399816E-34  -2.46544200223358E-10   5.06334230306477E-18   0.00000000000000E+00   0.00000000000000E+00
      0.00000000000000E+00   0.00000000000000E+00   0.00000000000000E+00   0.00000000000000E+00   0.00000000000000E+00
      3.49252449709767E-18   0.00000000000000E+00   0.00000000000000E+00   0.00000000000000E+00   0.00000000000000E+00
      1.84562656599491E-19  -1.30218270122522E-33   1.84562656599490E-19  -1.28585797712142E-17   1.79453333333333E-03
      1.79453328219164E-03   0.00000000000000E+00   0.00000000000000E+00   2.46544200038796E-10   6.24812354825402E-34
      2.46544200038796E-10   4.30271297105180E-18
      3.27475555555556E-03
      0.00000000000000E+00   7.66227825037129E-11   0.00000000000000E+00   0.00000000000000E+00  -3.73598624220624E-10
      6.63399777254424E-34  -3.73598624220624E-10   5.06293180169512E-18   0.00000000000000E+00   0.00000000000000E+00
      0.00000000000000E+00   0.00000000000000E+00   0.00000000000000E+00   0.00000000000000E+00   0.00000000000000E+00
      3.48024491506457E-18   0.00000000000000E+00   0.00000000000000E+00   0.00000000000000E+00   0.00000000000000E+00
     -2.73818130508899E-20  -1.27262607261117E-33  -2.73818130508911E-20  -1.28581797397247E-17   2.81628977777778E-03
      2.81628970027657E-03   0.00000000000000E+00   0.00000000000000E+00   3.73598624248006E-10   6.09226295356741E-34
      3.73598624248006E-10   4.31500302296501E-18
      4.57373274074074E-03
      0.00000000000000E+00   1.02959367199750E-10   0.00000000000000E+00   0.00000000000000E+00  -5.01978333129413E-10
      6.55583980881190E-34  -5.01978333129413E-10   5.06248309149686E-18   0.00000000000000E+00   0.00000000000000E+00
      0.00000000000000E+00   0.00000000000000E+00   0.00000000000000E+00   0.00000000000000E+00   0.00000000000000E+00
      3.46682278477469E-18   0.00000000000000E+00   0.00000000000000E+00   0.00000000000000E+00   0.00000000000000E+00
     -6.41167966142864E-20  -1.24620529985589E-33  -6.41167966142876E-20  -1.28577509590053E-17   3.93341015703704E-03
      3.93341005289782E-03   0.00000000000000E+00   0.00000000000000E+00   5.01978333193529E-10   5.90621318974701E-34
      5.01978333193529E-10   4.32844508273380E-18
      5.99394779654321E-03
      0.00000000000000E+00   1.29325194239618E-10   0.00000000000000E+00   0.00000000000000E+00  -6.30480554087714E-10
      6.75573574471542E-34  -6.30480554087714E-10   5.06199262447599E-18   0.00000000000000E+00   0.00000000000000E+00
      0.00000000000000E+00   0.00000000000000E+00   0.00000000000000E+00   0.00000000000000E+00   0.00000000000000E+00
      3.45215208734652E-18   0.00000000000000E+00   0.00000000000000E+00   0.00000000000000E+00   0.00000000000000E+00
      3.48464238636394E-20  -1.22819405620471E-33   3.48464238636382E-20  -1.28572922718897E-17   5.15479510502716E-03
      5.15479497422057E-03   0.00000000000000E+00   0.00000000000000E+00   6.30480554052867E-10   5.52620481733171E-34
      6.30480554052867E-10   4.34314756006714E-18
      7.54671625755391E-03
      0.00000000000000E+00   1.55452197749490E-10   0.00000000000000E+00   0.00000000000000E+00  -7.57797710652980E-10
      6.94749089642835E-34  -7.57797710652980E-10   5.06145652424365E-18   0.00000000000000E+00   0.00000000000000E+00
      0.00000000000000E+00   0.00000000000000E+00   0.00000000000000E+00   0.00000000000000E+00   0.00000000000000E+00
      3.43611700884790E-18   0.00000000000000E+00   0.00000000000000E+00   0.00000000000000E+00   0.00000000000000E+00
      4.25744208924544E-20  -1.20547608685459E-33   4.25744208924532E-20  -1.28568026680162E-17   6.49017598149636E-03
      6.49017582426415E-03   0.00000000000000E+00   0.00000000000000E+00   7.57797710610406E-10   5.10726997211756E-34
      7.57797710610406E-10   4.35922913492467E-18
      9.24440977492561E-03
      0.00000000000000E+00   1.81054224395212E-10   0.00000000000000E+00   0.00000000000000E+00  -8.82535574408477E-10
      6.45267043484247E-34  -8.82535574408477E-10   5.06087055570789E-18   0.00000000000000E+00   0.00000000000000E+00
      0.00000000000000E+00   0.00000000000000E+00   0.00000000000000E+00   0.00000000000000E+00   0.00000000000000E+00
      3.41859103996449E-18   0.00000000000000E+00   0.00000000000000E+00   0.00000000000000E+00   0.00000000000000E+00
      2.47583602118276E-19  -1.14858136367672E-33   2.47583602118275E-19  -1.28562813353306E-17   7.95019240643603E-03
      7.95019222330941E-03   0.00000000000000E+00   0.00000000000000E+00   8.82535574160894E-10   5.03314320192473E-34
      8.82535574160894E-10   4.37681973965827E-18
      1.11005546872520E-02
      0.00000000000000E+00   2.05833518641243E-10   0.00000000000000E+00   0.00000000000000E+00  -1.00324517793982E-09
      6.70583396227374E-34  -1.00324517793982E-09   5.06023009194825E-18   0.00000000000000E+00   0.00000000000000E+00
      0.00000000000000E+00   0.00000000000000E+00   0.00000000000000E+00   0.00000000000000E+00   0.00000000000000E+00
      3.39943599297041E-18   0.00000000000000E+00   0.00000000000000E+00   0.00000000000000E+00   0.00000000000000E+00
     -6.27567966823468E-20  -1.12415946558300E-33  -6.27567966823479E-20  -1.28557277207499E-17   9.54647703103672E-03
      9.54647682284810E-03   0.00000000000000E+00   0.00000000000000E+00   1.00324517800258E-09   4.53576069355625E-34
      1.00324517800258E-09   4.39606163583129E-18
      1.31299397913955E-02
      0.00000000000000E+00   2.29489992265798E-10   0.00000000000000E+00   0.00000000000000E+00  -1.11846838376046E-09
      6.72558165725112E-34  -1.11846838376046E-09   5.05953007799157E-18   0.00000000000000E+00   0.00000000000000E+00
      0.00000000000000E+00   0.00000000000000E+00   0.00000000000000E+00   0.00000000000000E+00   0.00000000000000E+00
      3.37850092766430E-18   0.00000000000000E+00   0.00000000000000E+00   0.00000000000000E+00   0.00000000000000E+00
      9.71569067956968E-20  -1.10165637448618E-33   9.71569067956957E-20  -1.28551416000472E-17   1.12917482206002E-02
      1.12917479884855E-02   0.00000000000000E+00   0.00000000000000E+00   1.11846838366330E-09   4.29098208761068E-34
      1.11846838366330E-09   4.41711059439126E-18
      1.53487341719258E-02
      0.00000000000000E+00   2.51733165027104E-10   0.00000000000000E+00   0.00000000000000E+00  -1.22679642426564E-09
      6.71098034990056E-34  -1.22679642426564E-09   5.05876499119621E-18   0.00000000000000E+00   0.00000000000000E+00
      0.00000000000000E+00   0.00000000000000E+00   0.00000000000000E+00   0.00000000000000E+00   0.00000000000000E+00
      3.35562097809346E-18   0.00000000000000E+00   0.00000000000000E+00   0.00000000000000E+00   0.00000000000000E+00
     -1.60710250634610E-20  -1.08449693618840E-33  -1.60710250634621E-20  -1.28545231586652E-17   1.31999113878562E-02
      1.31999111332450E-02   0.00000000000000E+00   0.00000000000000E+00   1.22679642428171E-09   4.13398901198348E-34
      1.22679642428171E-09   4.44013718937553E-18
      1.77746160279722E-02
      0.00000000000000E+00   2.72296298547953E-10   0.00000000000000E+00   0.00000000000000E+00  -1.32693883931298E-09
      6.81323085438135E-34  -1.32693883931298E-09   5.05792879791613E-18   0.00000000000000E+00   0.00000000000000E+00
      0.00000000000000E+00   0.00000000000000E+00   0.00000000000000E+00   0.00000000000000E+00   0.00000000000000E+00
      3.33061607045910E-18   0.00000000000000E+00   0.00000000000000E+00   0.00000000000000E+00   0.00000000000000E+00
     -5.80229735969604E-20  -1.07685758951013E-33  -5.80229735969615E-20  -1.28538730837165E-17   1.52861697840561E-02
      1.52861695086478E-02   0.00000000000000E+00   0.00000000000000E+00   1.32693883937101E-09   3.95534504072000E-34
      1.32693883937101E-09   4.46532821534128E-18
      2.04269135239163E-02
      0.00000000000000E+00   2.90952860335266E-10   0.00000000000000E+00   0.00000000000000E+00  -1.41780435908927E-09
      6.80918335409536E-34  -1.41780435908927E-09   5.05701490608202E-18   0.00000000000000E+00   0.00000000000000E+00
      0.00000000000000E+00   0.00000000000000E+00   0.00000000000000E+00   0.00000000000000E+00   0.00000000000000E+00
      3.30328952151964E-18   0.00000000000000E+00   0.00000000000000E+00   0.00000000000000E+00   0.00000000000000E+00
     -7.28911757696446E-20  -1.02847075670999E-33  -7.28911757696456E-20  -1.28531926682154E-17   1.75671456305680E-02
      1.75671453362916E-02   0.00000000000000E+00   0.00000000000000E+00   1.41780435916216E-09   3.47552421300451E-34
      1.41780435916216E-09   4.49288824061377E-18
      2.33267587861485E-02
      0.00000000000000E+00   3.07534793229067E-10   0.00000000000000E+00   0.00000000000000E+00  -1.49858944347567E-09
      6.27771012220768E-34  -1.49858944347567E-09   5.05601611325035E-18   0.00000000000000E+00   0.00000000000000E+00
      0.00000000000000E+00   0.00000000000000E+00   0.00000000000000E+00   0.00000000000000E+00   0.00000000000000E+00
      3.27342650435583E-18   0.00000000000000E+00   0.00000000000000E+00   0.00000000000000E+00   0.00000000000000E+00
      9.48330426726619E-20  -9.53423556994350E-34   9.48330426726610E-20  -1.28524839248517E-17   2.00610125560877E-02
      2.00610122450421E-02   0.00000000000000E+00   0.00000000000000E+00   1.49858944338084E-09   3.25652544773582E-34
      1.49858944338084E-09   4.52304130724553E-18
      2.64972562728556E-02
      0.00000000000000E+00   3.21950850333354E-10   0.00000000000000E+00   0.00000000000000E+00  -1.56886805618689E-09
      6.33786462557951E-34  -1.56886805618689E-09   5.05492454973073E-18   0.00000000000000E+00   0.00000000000000E+00
      0.00000000000000E+00   0.00000000000000E+00   0.00000000000000E+00   0.00000000000000E+00   0.00000000000000E+00
      3.24079237016813E-18   0.00000000000000E+00   0.00000000000000E+00   0.00000000000000E+00   0.00000000000000E+00
      1.33055922248132E-19  -9.31126797522849E-34   1.33055922248131E-19  -1.28517497119973E-17   2.27876403946559E-02
      2.27876400690328E-02   0.00000000000000E+00   0.00000000000000E+00   1.56886805605384E-09   2.97340334964898E-34
      1.56886805605384E-09   4.55603279209845E-18
      2.99636668583222E-02
      0.00000000000000E+00   3.34204247064343E-10   0.00000000000000E+00   0.00000000000000E+00  -1.62867677023653E-09
      6.69586208495890E-34  -1.62867677023653E-09   5.05373161629554E-18   0.00000000000000E+00   0.00000000000000E+00
      0.00000000000000E+00   0.00000000000000E+00   0.00000000000000E+00   0.00000000000000E+00   0.00000000000000E+00
      3.20513081118852E-18   0.00000000000000E+00   0.00000000000000E+00   0.00000000000000E+00   0.00000000000000E+00
     -1.24184397848533E-19  -9.48169791781884E-34  -1.24184397848534E-19  -1.28509938711444E-17   2.57687534981571E-02
      2.57687531601451E-02   0.00000000000000E+00   0.00000000000000E+00   1.62867677036071E-09   2.78583583285995E-34
      1.62867677036071E-09   4.59213144366027E-18
      3.37536090984323E-02
      0.00000000000000E+00   3.44407055261784E-10   0.00000000000000E+00   0.00000000000000E+00  -1.67858437950352E-09
      6.67238917069313E-34  -1.67858437950352E-09   5.05242791587675E-18   0.00000000000000E+00   0.00000000000000E+00
      0.00000000000000E+00   0.00000000000000E+00   0.00000000000000E+00   0.00000000000000E+00   0.00000000000000E+00
      3.16616184496053E-18   0.00000000000000E+00   0.00000000000000E+00   0.00000000000000E+00   0.00000000000000E+00
     -1.87808533218412E-19  -9.17694832112043E-34  -1.87808533218413E-19  -1.28502213677793E-17   2.90281038246517E-02
      2.90281034763274E-02   0.00000000000000E+00   0.00000000000000E+00   1.67858437969133E-09   2.50455915042731E-34
      1.67858437969133E-09   4.63163160694210E-18
      3.78972792809526E-02
      0.00000000000000E+00   3.52787255674195E-10   0.00000000000000E+00   0.00000000000000E+00  -1.71972474566985E-09
      7.27777067582982E-34  -1.71972474566985E-09   5.05100317886441E-18   0.00000000000000E+00   0.00000000000000E+00
      0.00000000000000E+00   0.00000000000000E+00   0.00000000000000E+00   0.00000000000000E+00   0.00000000000000E+00
      3.12357960619354E-18   0.00000000000000E+00   0.00000000000000E+00   0.00000000000000E+00   0.00000000000000E+00
     -4.04213247950858E-20  -9.41799793507805E-34  -4.04213247950868E-20  -1.28494384410413E-17   3.25916601816192E-02
      3.25916598248294E-02   0.00000000000000E+00   0.00000000000000E+00   1.71972474571027E-09   2.14022725924823E-34
      1.71972474571027E-09   4.67485565598336E-18
      4.24276920138415E-02
      0.00000000000000E+00   3.59682895613083E-10   0.00000000000000E+00   0.00000000000000E+00  -1.75376600949332E-09
      6.43272319148948E-34  -1.75376600949332E-09   5.04944618142098E-18   0.00000000000000E+00   0.00000000000000E+00
      0.00000000000000E+00   0.00000000000000E+00   0.00000000000000E+00   0.00000000000000E+00   0.00000000000000E+00
      3.07704992410650E-18   0.00000000000000E+00   0.00000000000000E+00   0.00000000000000E+00   0.00000000000000E+00
      8.12464543986540E-20  -8.34039749201482E-34   8.12464543986531E-20  -1.28486527533982E-17   3.64878151319037E-02
      3.64878147681548E-02   0.00000000000000E+00   0.00000000000000E+00   1.75376600941208E-09   1.90767430052534E-34
      1.75376600941208E-09   4.72215664787067E-18
      4.73809432684667E-02
      0.00000000000000E+00   3.65518918566737E-10   0.00000000000000E+00   0.00000000000000E+00  -1.78279433828534E-09
      6.44022161404206E-34  -1.78279433828534E-09   5.04774465632585E-18   0.00000000000000E+00   0.00000000000000E+00
      0.00000000000000E+00   0.00000000000000E+00   0.00000000000000E+00   0.00000000000000E+00   0.00000000000000E+00
      3.02620766368327E-18   0.00000000000000E+00   0.00000000000000E+00   0.00000000000000E+00   0.00000000000000E+00
      2.47937465115310E-19  -8.13098285949611E-34   2.47937465115309E-19  -1.28478735359158E-17   4.07476112108814E-02
      4.07476108412523E-02   0.00000000000000E+00   0.00000000000000E+00   1.78279433803741E-09   1.69076124545404E-34
      1.78279433803741E-09   4.77392121590669E-18
      5.27964979735236E-02
      0.00000000000000E+00   3.70766446366733E-10   0.00000000000000E+00   0.00000000000000E+00  -1.80911544398316E-09
      7.04533742219566E-34  -1.80911544398316E-09   5.04588519604603E-18   0.00000000000000E+00   0.00000000000000E+00
      0.00000000000000E+00   0.00000000000000E+00   0.00000000000000E+00   0.00000000000000E+00   0.00000000000000E+00
      2.97065381992750E-18   0.00000000000000E+00   0.00000000000000E+00   0.00000000000000E+00   0.00000000000000E+00
     -4.71406657413690E-20  -8.41909872632047E-34  -4.71406657413698E-20  -1.28471117412085E-17   4.54049882572303E-02
      4.54049878823257E-02   0.00000000000000E+00   0.00000000000000E+00   1.80911544403030E-09   1.37376130412481E-34
      1.80911544403030E-09   4.83057272523502E-18
      5.86814007530188E-02
      0.00000000000000E+00   3.75859441144306E-10   0.00000000000000E+00   0.00000000000000E+00  -1.83484537373744E-09
      6.81663553529513E-34  -1.83484537373744E-09   5.04386553553012E-18   0.00000000000000E+00   0.00000000000000E+00
      0.00000000000000E+00   0.00000000000000E+00   0.00000000000000E+00   0.00000000000000E+00   0.00000000000000E+00
      2.91032236368722E-18   0.00000000000000E+00   0.00000000000000E+00   0.00000000000000E+00   0.00000000000000E+00
     -3.83151298506537E-20  -8.01410012984528E-34  -3.83151298506545E-20  -1.28463843519984E-17   5.04660046475962E-02
      5.04660042675841E-02   0.00000000000000E+00   0.00000000000000E+00   1.83484537377575E-09   1.19746459455015E-34
      1.83484537377575E-09   4.89219645278102E-18
      6.50763284400702E-02
      0.00000000000000E+00   3.81181723757076E-10   0.00000000000000E+00   0.00000000000000E+00  -1.86185393900014E-09
      6.49873826938426E-34  -1.86185393900014E-09   5.04167187531323E-18   0.00000000000000E+00   0.00000000000000E+00
      0.00000000000000E+00   0.00000000000000E+00   0.00000000000000E+00   0.00000000000000E+00   0.00000000000000E+00
      2.84480262725778E-18   0.00000000000000E+00   0.00000000000000E+00   0.00000000000000E+00   0.00000000000000E+00
      1.13644078794308E-19  -7.46309615855275E-34   1.13644078794307E-19  -1.28457049748699E-17   5.59656424584604E-02
      5.59656420731226E-02   0.00000000000000E+00   0.00000000000000E+00   1.86185393888650E-09   9.64357889168491E-35
      1.86185393888650E-09   4.95923047229895E-18
      7.20254831933328E-02
      0.00000000000000E+00   3.86975677569017E-10   0.00000000000000E+00   0.00000000000000E+00  -1.89130816628006E-09
      6.73089790742651E-34  -1.89130816628006E-09   5.03928923129388E-18   0.00000000000000E+00   0.00000000000000E+00
      0.00000000000000E+00   0.00000000000000E+00   0.00000000000000E+00   0.00000000000000E+00   0.00000000000000E+00
      2.77364850714858E-18   0.00000000000000E+00   0.00000000000000E+00   0.00000000000000E+00   0.00000000000000E+00
      1.06652032303842E-19  -7.56107969601926E-34   1.06652032303842E-19  -1.28450889961704E-17   6.19419155462662E-02
      6.19419151551387E-02   0.00000000000000E+00   0.00000000000000E+00   1.89130816617341E-09   8.30181788592755E-35
      1.89130816617341E-09   5.03215125772794E-18
      7.95768980252114E-02
      0.00000000000000E+00   3.93364453616512E-10   0.00000000000000E+00   0.00000000000000E+00  -1.92380423176216E-09
      6.35404610291235E-34  -1.92380423176216E-09   5.03670133159472E-18   0.00000000000000E+00   0.00000000000000E+00
      0.00000000000000E+00   0.00000000000000E+00   0.00000000000000E+00   0.00000000000000E+00   0.00000000000000E+00
      2.69637540576147E-18   0.00000000000000E+00   0.00000000000000E+00   0.00000000000000E+00   0.00000000000000E+00
      2.45394572670572E-20  -6.99970902101580E-34   2.45394572670565E-20  -1.28445536820632E-17   6.84361323016818E-02
      6.84361319041790E-02   0.00000000000000E+00   0.00000000000000E+00   1.92380423173762E-09   6.45662918103454E-35
      1.92380423173762E-09   5.11147694470702E-18
      8.77827688091861E-02
      0.00000000000000E+00   4.00421020842443E-10   0.00000000000000E+00   0.00000000000000E+00  -1.95971992477455E-09
      6.78445238357726E-34  -1.95971992477455E-09   5.03389050534453E-18   0.00000000000000E+00   0.00000000000000E+00
      0.00000000000000E+00   0.00000000000000E+00   0.00000000000000E+00   0.00000000000000E+00   0.00000000000000E+00
      2.61245690984112E-18   0.00000000000000E+00   0.00000000000000E+00   0.00000000000000E+00   0.00000000000000E+00
      1.10981667484564E-19  -7.29053615122775E-34   1.10981667484563E-19  -1.28441182643076E-17   7.54931811759001E-02
      7.54931807713664E-02   0.00000000000000E+00   0.00000000000000E+00   1.95971992466357E-09   5.06083767650491E-35
      1.95971992466357E-09   5.19777084912193E-18
      9.66998150611054E-02
      0.00000000000000E+00   4.08192419059718E-10   0.00000000000000E+00   0.00000000000000E+00  -1.99930471438603E-09
      7.14184209134705E-34  -1.99930471438603E-09   5.03083756880733E-18   0.00000000000000E+00   0.00000000000000E+00
      0.00000000000000E+00   0.00000000000000E+00   0.00000000000000E+00   0.00000000000000E+00   0.00000000000000E+00
      2.52132125029464E-18   0.00000000000000E+00   0.00000000000000E+00   0.00000000000000E+00   0.00000000000000E+00
     -8.76356718092558E-20  -7.53102410813025E-34  -8.76356718092566E-20  -1.28438040838408E-17   8.31618409525506E-02
      8.31618405402801E-02   0.00000000000000E+00   0.00000000000000E+00   1.99930471447367E-09   3.89182016783207E-35
      1.99930471447367E-09   5.29164526473877E-18
      1.06389671988191E-01
      0.00000000000000E+00   4.16716099660761E-10   0.00000000000000E+00   0.00000000000000E+00  -2.04276145325757E-09
      6.66031235823451E-34  -2.04276145325757E-09   5.02752169552485E-18   0.00000000000000E+00   0.00000000000000E+00
      0.00000000000000E+00   0.00000000000000E+00   0.00000000000000E+00   0.00000000000000E+00   0.00000000000000E+00
      2.42234740631684E-18   0.00000000000000E+00   0.00000000000000E+00   0.00000000000000E+00   0.00000000000000E+00
     -2.34879770143908E-20  -6.95299994711284E-34  -2.34879770143915E-20  -1.28436346401169E-17   9.14951179098442E-02
      9.14951174890867E-02   0.00000000000000E+00   0.00000000000000E+00   2.04276145328106E-09   2.92687588878337E-35
      2.04276145328106E-09   5.39376553827518E-18
      1.16389671988191E-01
      0.00000000000000E+00   4.25589148287584E-10   0.00000000000000E+00   0.00000000000000E+00  -2.08805423836107E-09
      6.50611075187819E-34  -2.08805423836107E-09   5.02410137494812E-18   0.00000000000000E+00   0.00000000000000E+00
      0.00000000000000E+00   0.00000000000000E+00   0.00000000000000E+00   0.00000000000000E+00   0.00000000000000E+00
      2.32026584038854E-18   0.00000000000000E+00   0.00000000000000E+00   0.00000000000000E+00   0.00000000000000E+00
      1.03087342863109E-21  -6.72102089818419E-34   1.03087342863042E-21  -1.28436310912937E-17   1.00095117909844E-01
      1.00095117480254E-01   0.00000000000000E+00   0.00000000000000E+00   2.08805423836004E-09   2.14910146305996E-35
      2.08805423836004E-09   5.49926387595706E-18
      1.26389671988191E-01
      0.00000000000000E+00   4.34559039536065E-10   0.00000000000000E+00   0.00000000000000E+00  -2.13390111584229E-09
      6.70279655747224E-34  -2.13390111584229E-09   5.02068264954167E-18   0.00000000000000E+00   0.00000000000000E+00
      0.00000000000000E+00   0.00000000000000E+00   0.00000000000000E+00   0.00000000000000E+00   0.00000000000000E+00
      2.21824015826269E-18   0.00000000000000E+00   0.00000000000000E+00   0.00000000000000E+00   0.00000000000000E+00
     -1.22983892287812E-19  -6.86755197779336E-34  -1.22983892287813E-19  -1.28437859216635E-17   1.08695117909844E-01
      1.08695117471336E-01   0.00000000000000E+00   0.00000000000000E+00   2.13390111596527E-09   1.64755420321112E-35
      2.13390111596527E-09   5.60486311385909E-18
      1.36389671988191E-01
      0.00000000000000E+00   4.43646710604630E-10   0.00000000000000E+00   0.00000000000000E+00  -2.18040559788367E-09
      6.12266913865779E-34  -2.18040559788367E-09   5.01726542084191E-18   0.00000000000000E+00   0.00000000000000E+00
      0.00000000000000E+00   0.00000000000000E+00   0.00000000000000E+00   0.00000000000000E+00   0.00000000000000E+00
      2.11626586785285E-18   0.00000000000000E+00   0.00000000000000E+00   0.00000000000000E+00   0.00000000000000E+00
      5.98315849632873E-20  -6.24641158017992E-34   5.98315849632867E-20  -1.28440850200923E-17   1.17295117909844E-01
      1.17295117462314E-01   0.00000000000000E+00   0.00000000000000E+00   2.18040559782384E-09   1.23742441522125E-35
      2.18040559782384E-09   5.71055373139761E-18
      1.46389671988191E-01
      0.00000000000000E+00   4.52864999346545E-10   0.00000000000000E+00   0.00000000000000E+00  -2.22763022486139E-09
      6.43757651815417E-34  -2.22763022486139E-09   5.01384960877315E-18   0.00000000000000E+00   0.00000000000000E+00
      0.00000000000000E+00   0.00000000000000E+00   0.00000000000000E+00   0.00000000000000E+00   0.00000000000000E+00
      2.01433915386692E-18   0.00000000000000E+00   0.00000000000000E+00   0.00000000000000E+00   0.00000000000000E+00
     -5.88800937072943E-20  -6.52731306682875E-34  -5.88800937072949E-20  -1.28445158025681E-17   1.25895117909844E-01
      1.25895117453168E-01   0.00000000000000E+00   0.00000000000000E+00   2.22763022492027E-09   8.97365486745739E-36
      2.22763022492027E-09   5.81632703992808E-18
      1.56389671988191E-01
      0.00000000000000E+00   4.62218463982103E-10   0.00000000000000E+00   0.00000000000000E+00  -2.27559690900168E-09
      6.24793395722594E-34  -2.27559690900168E-09   5.01043514477362E-18   0.00000000000000E+00   0.00000000000000E+00
      0.00000000000000E+00   0.00000000000000E+00   0.00000000000000E+00   0.00000000000000E+00   0.00000000000000E+00
      1.91245674595773E-18   0.00000000000000E+00   0.00000000000000E+00   0.00000000000000E+00   0.00000000000000E+00
     -2.49932735408400E-20  -6.31470548891710E-34  -2.49932735408406E-20  -1.28450669804220E-17   1.34495117909844E-01
      1.34495117443881E-01   0.00000000000000E+00   0.00000000000000E+00   2.27559690902667E-09   6.67715316911585E-36
      2.27559690902667E-09   5.92217508969072E-18
      1.66389671988191E-01
      0.00000000000000E+00   4.71706795810936E-10   0.00000000000000E+00   0.00000000000000E+00  -2.32430363006066E-09
      6.30638999806122E-34  -2.32430363006066E-09   5.00702196804580E-18   0.00000000000000E+00   0.00000000000000E+00
      0.00000000000000E+00   0.00000000000000E+00   0.00000000000000E+00   0.00000000000000E+00   0.00000000000000E+00
      1.81061581205013E-18   0.00000000000000E+00   0.00000000000000E+00   0.00000000000000E+00   0.00000000000000E+00
      7.40967062306448E-20  -6.35579714953062E-34   7.40967062306442E-20  -1.28457283659405E-17   1.43095117909844E-01
      1.43095117434452E-01   0.00000000000000E+00   0.00000000000000E+00   2.32430362998657E-09   4.94071514694026E-36
      2.32430362998657E-09   6.02809058584452E-18
      1.76389671988191E-01
      0.00000000000000E+00   4.81328034628236E-10   0.00000000000000E+00   0.00000000000000E+00  -2.37374067285997E-09
      6.48737551421558E-34  -2.37374067285997E-09   5.00361002422741E-18   0.00000000000000E+00   0.00000000000000E+00
      0.00000000000000E+00   0.00000000000000E+00   0.00000000000000E+00   0.00000000000000E+00   0.00000000000000E+00
      1.70881388268174E-18   0.00000000000000E+00   0.00000000000000E+00   0.00000000000000E+00   0.00000000000000E+00
      9.11746589788252E-21  -6.52558175968883E-34   9.11746589788186E-21  -1.28464907293914E-17   1.51695117909844E-01
      1.51695117424887E-01   0.00000000000000E+00   0.00000000000000E+00   2.37374067285085E-09   3.82062454732493E-36
      2.37374067285085E-09   6.13406682248224E-18
      1.86389671988191E-01
      0.00000000000000E+00   4.91080490660922E-10   0.00000000000000E+00   0.00000000000000E+00  -2.42390046098257E-09