DF-ISE text

Info {
  version   = 1.0
  type      = xyplot
  datasets  = [
    "time"
    "source OuterVoltage" "source InnerVoltage" "source QuasiFermiPotential" "source DisplacementCurrent" "source eCurrent"
    "source hCurrent" "source TotalCurrent" "source Charge" "gate OuterVoltage" "gate InnerVoltage"
    "gate QuasiFermiPotential" "gate DisplacementCurrent" "gate eCurrent" "gate hCurrent" "gate TotalCurrent"
    "gate Charge" "substrate OuterVoltage" "substrate InnerVoltage" "substrate QuasiFermiPotential" "substrate DisplacementCurrent"
    "substrate eCurrent" "substrate hCurrent" "substrate TotalCurrent" "substrate Charge" "drain OuterVoltage"
    "drain InnerVoltage" "drain QuasiFermiPotential" "drain DisplacementCurrent" "drain eCurrent" "drain hCurrent"
    "drain TotalCurrent" "drain Charge" ]
  functions = [
    Time
    OuterVoltage InnerVoltage QuasiFermiPotential DisplacementCurrent eCurrent
    hCurrent TotalCurrent Charge OuterVoltage InnerVoltage
    QuasiFermiPotential DisplacementCurrent eCurrent hCurrent TotalCurrent
    Charge OuterVoltage InnerVoltage QuasiFermiPotential DisplacementCurrent
    eCurrent hCurrent TotalCurrent Charge OuterVoltage
    InnerVoltage QuasiFermiPotential DisplacementCurrent eCurrent hCurrent
    TotalCurrent Charge ]
}

Data {
      0.00000000000000E+00
      0.00000000000000E+00   0.00000000000000E+00   0.00000000000000E+00   0.00000000000000E+00  -1.72935185580921E-21
     -1.98906245365729E-34  -1.72935185580941E-21   5.50471874995542E-18   0.00000000000000E+00   0.00000000000000E+00
      0.00000000000000E+00   0.00000000000000E+00   0.00000000000000E+00   0.00000000000000E+00   0.00000000000000E+00
      3.91086452440898E-18   0.00000000000000E+00   0.00000000000000E+00   0.00000000000000E+00   0.00000000000000E+00
     -1.21654499397014E-21   4.07917777706217E-34  -1.21654499396973E-21  -1.39911291499587E-17   0.00000000000000E+00
      0.00000000000000E+00   0.00000000000000E+00   0.00000000000000E+00   2.94589684977935E-21  -2.09011532340488E-34
      2.94589684977914E-21   4.57554587559430E-18
      0.00000000000000E+00
      0.00000000000000E+00   0.00000000000000E+00   0.00000000000000E+00   0.00000000000000E+00  -2.26514039192713E-19
     -1.98750523928328E-34  -2.26514039192713E-19   5.50269552152890E-18   0.00000000000000E+00   0.00000000000000E+00
      0.00000000000000E+00   0.00000000000000E+00   0.00000000000000E+00   0.00000000000000E+00   0.00000000000000E+00
      3.90359930288280E-18   0.00000000000000E+00   0.00000000000000E+00   0.00000000000000E+00   0.00000000000000E+00
      3.38761188472902E-19   3.96799489255407E-34   3.38761188472903E-19  -1.39802126257940E-17   0.00000000000000E+00
      0.00000000000000E+00   0.00000000000000E+00   0.00000000000000E+00  -1.12247149280190E-19  -1.98048965327079E-34
     -1.12247149280190E-19   4.57391780138233E-18
      1.00000000000000E-03
      0.00000000000000E+00   1.94145558488692E-12   0.00000000000000E+00   0.00000000000000E+00  -1.02478944043645E-11
     -1.84397815174567E-34  -1.02478944043645E-11   5.50268065772776E-18   0.00000000000000E+00   0.00000000000000E+00
      0.00000000000000E+00   0.00000000000000E+00   0.00000000000000E+00   0.00000000000000E+00   0.00000000000000E+00
      3.90290419975930E-18   0.00000000000000E+00   0.00000000000000E+00   0.00000000000000E+00   0.00000000000000E+00
     -4.09639889696850E-19   3.79135194122255E-34  -4.09639889696850E-19  -1.39801758059030E-17   5.00000000000000E-05
      4.99999980528451E-05   0.00000000000000E+00   0.00000000000000E+00   1.02478948140044E-11  -1.94737378947688E-34
      1.02478948140044E-11   4.57459094841593E-18
      2.09333333333333E-03
      0.00000000000000E+00   4.05781869001207E-12   0.00000000000000E+00   0.00000000000000E+00  -2.14189730932451E-11
     -1.69551022083112E-34  -2.14189730932451E-11   5.50266440688335E-18   0.00000000000000E+00   0.00000000000000E+00
      0.00000000000000E+00   0.00000000000000E+00   0.00000000000000E+00   0.00000000000000E+00   0.00000000000000E+00
      3.90214423402316E-18   0.00000000000000E+00   0.00000000000000E+00   0.00000000000000E+00   0.00000000000000E+00
      6.14636318812207E-20   3.51354651211322E-34   6.14636318812211E-20  -1.39801355812730E-17   1.04666666666667E-04
      1.04666662596954E-04   0.00000000000000E+00   0.00000000000000E+00   2.14189730317815E-11  -1.81803629128211E-34
      2.14189730317815E-11   4.57532694036646E-18
      3.29600000000000E-03
      0.00000000000000E+00   6.37794054260695E-12   0.00000000000000E+00   0.00000000000000E+00  -3.36656054162504E-11
     -1.84207822297353E-34  -3.36656054162504E-11   5.50264653125129E-18   0.00000000000000E+00   0.00000000000000E+00
      0.00000000000000E+00   0.00000000000000E+00   0.00000000000000E+00   0.00000000000000E+00   0.00000000000000E+00
      3.90130828820104E-18   0.00000000000000E+00   0.00000000000000E+00   0.00000000000000E+00   0.00000000000000E+00
      9.17717780614338E-20   4.06907421745660E-34   9.17717780614342E-20  -1.39800913724975E-17   1.64800000000000E-04
      1.64799993603367E-04   0.00000000000000E+00   0.00000000000000E+00   3.36656053244787E-11  -2.22699599448307E-34
      3.36656053244787E-11   4.57613655304520E-18
      4.61893333333333E-03
      0.00000000000000E+00   8.92038416203604E-12   0.00000000000000E+00   0.00000000000000E+00  -4.70856692739077E-11
     -2.08622335536119E-34  -4.70856692739077E-11   5.50262686841596E-18   0.00000000000000E+00   0.00000000000000E+00
      0.00000000000000E+00   0.00000000000000E+00   0.00000000000000E+00   0.00000000000000E+00   0.00000000000000E+00
      3.90038876772556E-18   0.00000000000000E+00   0.00000000000000E+00   0.00000000000000E+00   0.00000000000000E+00
      1.62065947041294E-20   4.07597959956692E-34   1.62065947041298E-20  -1.39800427891695E-17   2.30946666666667E-04
      2.30946657720154E-04   0.00000000000000E+00   0.00000000000000E+00   4.70856692577011E-11  -1.98975624420573E-34
      4.70856692577011E-11   4.57702715302797E-18
      6.07416000000000E-03
      0.00000000000000E+00   1.17051804861594E-11   0.00000000000000E+00   0.00000000000000E+00  -6.17849452252301E-11
     -1.73075798931911E-34  -6.17849452252301E-11   5.50260523973327E-18   0.00000000000000E+00   0.00000000000000E+00
      0.00000000000000E+00   0.00000000000000E+00   0.00000000000000E+00   0.00000000000000E+00   0.00000000000000E+00
      3.89937731928827E-18   0.00000000000000E+00   0.00000000000000E+00   0.00000000000000E+00   0.00000000000000E+00
     -4.31784907261961E-19   4.13491979678745E-34  -4.31784907261961E-19  -1.39799894035101E-17   3.03708000000000E-04
      3.03707988260551E-04   0.00000000000000E+00   0.00000000000000E+00   6.17849456570150E-11  -2.40416180746834E-34
      6.17849456570150E-11   4.57800684448848E-18
      7.67490933333333E-03
      0.00000000000000E+00   1.47539393836670E-11   0.00000000000000E+00   0.00000000000000E+00  -7.78774440739004E-11
     -1.63270052796044E-34  -7.78774440739004E-11   5.50258144871038E-18   0.00000000000000E+00   0.00000000000000E+00
      0.00000000000000E+00   0.00000000000000E+00   0.00000000000000E+00   0.00000000000000E+00   0.00000000000000E+00
      3.89826475511330E-18   0.00000000000000E+00   0.00000000000000E+00   0.00000000000000E+00   0.00000000000000E+00
      1.11535058906215E-19   3.77185398634182E-34   1.11535058906216E-19  -1.39799307469770E-17   3.83745466666667E-04
      3.83745451869555E-04   0.00000000000000E+00   0.00000000000000E+00   7.78774439623653E-11  -2.13915345838138E-34
      7.78774439623653E-11   4.57908454315335E-18
      9.43573360000000E-03
      0.00000000000000E+00   1.80898784054751E-11   0.00000000000000E+00   0.00000000000000E+00  -9.54857115213947E-11
     -1.60313283393555E-34  -9.54857115213947E-11   5.50255527922456E-18   0.00000000000000E+00   0.00000000000000E+00
      0.00000000000000E+00   0.00000000000000E+00   0.00000000000000E+00   0.00000000000000E+00   0.00000000000000E+00
      3.89704096968954E-18   0.00000000000000E+00   0.00000000000000E+00   0.00000000000000E+00   0.00000000000000E+00
     -2.95136528857774E-19   3.64603207591190E-34  -2.95136528857774E-19  -1.39798663066077E-17   4.71786680000000E-04
      4.71786661857202E-04   0.00000000000000E+00   0.00000000000000E+00   9.54857118165312E-11  -2.04289924197636E-34
      9.54857118165312E-11   4.58027005769358E-18
      1.13726402933333E-02
      0.00000000000000E+00   2.17379002537652E-11   0.00000000000000E+00   0.00000000000000E+00  -1.14741088846067E-10
     -1.82774801201967E-34  -1.14741088846067E-10   5.50252649356369E-18   0.00000000000000E+00   0.00000000000000E+00
      0.00000000000000E+00   0.00000000000000E+00   0.00000000000000E+00   0.00000000000000E+00   0.00000000000000E+00
      3.89569484821142E-18   0.00000000000000E+00   0.00000000000000E+00   0.00000000000000E+00   0.00000000000000E+00
      4.96705755007429E-19   3.90965191692987E-34   4.96705755007430E-19  -1.39797955210788E-17   5.68632014666667E-04
      5.68631992865221E-04   0.00000000000000E+00   0.00000000000000E+00   1.14741088349361E-10  -2.08190390491020E-34
      1.14741088349361E-10   4.58157417930369E-18
      1.35032376560000E-02
      0.00000000000000E+00   2.57245792049359E-11   0.00000000000000E+00   0.00000000000000E+00  -1.35783875355321E-10
     -1.81774458125984E-34  -1.35783875355321E-10   5.50249483027240E-18   0.00000000000000E+00   0.00000000000000E+00
      0.00000000000000E+00   0.00000000000000E+00   0.00000000000000E+00   0.00000000000000E+00   0.00000000000000E+00
      3.89421416590794E-18   0.00000000000000E+00   0.00000000000000E+00   0.00000000000000E+00   0.00000000000000E+00
      2.46580745388622E-19   4.07061245319951E-34   2.46580745388622E-19  -1.39797177764776E-17   6.75161882800000E-04
      6.75161857000269E-04   0.00000000000000E+00   0.00000000000000E+00   1.35783875108740E-10  -2.25286787193967E-34
      1.35783875108740E-10   4.58300878029724E-18
      1.58468947549333E-02
      0.00000000000000E+00   3.00782082299464E-11   0.00000000000000E+00   0.00000000000000E+00  -1.58763389941913E-10
     -1.55642939704790E-34  -1.58763389941913E-10   5.50246000178343E-18   0.00000000000000E+00   0.00000000000000E+00
      0.00000000000000E+00   0.00000000000000E+00   0.00000000000000E+00   0.00000000000000E+00   0.00000000000000E+00
      3.89258547735767E-18   0.00000000000000E+00   0.00000000000000E+00   0.00000000000000E+00   0.00000000000000E+00
      2.15410321503860E-19   3.86692997673051E-34   2.15410321503860E-19  -1.39796324017743E-17   7.92344737746667E-04
      7.92344707580627E-04   0.00000000000000E+00   0.00000000000000E+00   1.58763389726503E-10  -2.31050057968261E-34
      1.58763389726503E-10   4.58458692263322E-18
      1.84249175637600E-02
      0.00000000000000E+00   3.48288125713647E-11   0.00000000000000E+00   0.00000000000000E+00  -1.83837870963607E-10
     -1.63910436986954E-34  -1.83837870963607E-10   5.50242169181327E-18   0.00000000000000E+00   0.00000000000000E+00
      0.00000000000000E+00   0.00000000000000E+00   0.00000000000000E+00   0.00000000000000E+00   0.00000000000000E+00
      3.89079399479770E-18   0.00000000000000E+00   0.00000000000000E+00   0.00000000000000E+00   0.00000000000000E+00
      1.51719794293002E-19   3.61554794888411E-34   1.51719794293003E-19  -1.39795386639908E-17   9.21245878188001E-04
      9.21245843257574E-04   0.00000000000000E+00   0.00000000000000E+00   1.83837870811887E-10  -1.97644357901457E-34
      1.83837870811887E-10   4.58632297737990E-18
      2.12607426534693E-02
      0.00000000000000E+00   4.00079804295911E-11   0.00000000000000E+00   0.00000000000000E+00  -2.11174183538830E-10
     -1.73897014180655E-34  -2.11174183538830E-10   5.50237955249896E-18   0.00000000000000E+00   0.00000000000000E+00
      0.00000000000000E+00   0.00000000000000E+00   0.00000000000000E+00   0.00000000000000E+00   0.00000000000000E+00
      3.88882345434019E-18   0.00000000000000E+00   0.00000000000000E+00   0.00000000000000E+00   0.00000000000000E+00
      9.60254211916718E-19   3.79515038661547E-34   9.60254211916719E-19  -1.39794357630664E-17   1.06303713267347E-03
      1.06303709254885E-03   0.00000000000000E+00   0.00000000000000E+00   2.11174182578576E-10  -2.05618024480892E-34
      2.11174182578576E-10   4.58823275622725E-18
      2.43801502521496E-02
      0.00000000000000E+00   4.56489132778012E-11   0.00000000000000E+00   0.00000000000000E+00  -2.40947297416657E-10
     -1.73899331203018E-34  -2.40947297416657E-10   5.50233320124997E-18   0.00000000000000E+00   0.00000000000000E+00
      0.00000000000000E+00   0.00000000000000E+00   0.00000000000000E+00   0.00000000000000E+00   0.00000000000000E+00
      3.88665596889834E-18   0.00000000000000E+00   0.00000000000000E+00   0.00000000000000E+00   0.00000000000000E+00
      7.64310802491818E-19   3.84827155637089E-34   7.64310802491819E-19  -1.39793228264222E-17   1.21900751260748E-03
      1.21900746682561E-03   0.00000000000000E+00   0.00000000000000E+00   2.40947296652346E-10  -2.10927824434070E-34
      2.40947296652346E-10   4.59033365627391E-18
      2.78114986106979E-02
      0.00000000000000E+00   5.17861439385351E-11   0.00000000000000E+00   0.00000000000000E+00  -2.73339459913783E-10
     -1.82290430841950E-34  -2.73339459913783E-10   5.50228221728750E-18   0.00000000000000E+00   0.00000000000000E+00
      0.00000000000000E+00   0.00000000000000E+00   0.00000000000000E+00   0.00000000000000E+00   0.00000000000000E+00
      3.88427186651535E-18   0.00000000000000E+00   0.00000000000000E+00   0.00000000000000E+00   0.00000000000000E+00
      1.52453833949379E-18   3.96241667217851E-34   1.52453833949379E-18  -1.39791989032431E-17   1.39057493053490E-03
      1.39057487859806E-03   0.00000000000000E+00   0.00000000000000E+00   2.73339458389245E-10  -2.13951236375901E-34
      2.73339458389245E-10   4.59264481944028E-18
      3.15859818051010E-02
      0.00000000000000E+00   5.84553752564201E-11   0.00000000000000E+00   0.00000000000000E+00  -3.08538986946957E-10
     -1.88948534652193E-34  -3.08538986946957E-10   5.50222613783982E-18   0.00000000000000E+00   0.00000000000000E+00
      0.00000000000000E+00   0.00000000000000E+00   0.00000000000000E+00   0.00000000000000E+00   0.00000000000000E+00
      3.88164951265786E-18   0.00000000000000E+00   0.00000000000000E+00   0.00000000000000E+00   0.00000000000000E+00
      3.18177661513570E-18   3.94520562185791E-34   3.18177661513570E-18  -1.39790629584997E-17   1.57929909025505E-03
      1.57929903162974E-03   0.00000000000000E+00   0.00000000000000E+00   3.08538983765181E-10  -2.05572027533598E-34
      3.08538983765181E-10   4.59518730800202E-18
      3.57379133189445E-02
      0.00000000000000E+00   6.56931845977113E-11   0.00000000000000E+00   0.00000000000000E+00  -3.46738641918615E-10
     -1.90286832464118E-34  -3.46738641918615E-10   5.50216445396031E-18   0.00000000000000E+00   0.00000000000000E+00
      0.00000000000000E+00   0.00000000000000E+00   0.00000000000000E+00   0.00000000000000E+00   0.00000000000000E+00
      3.87876511488365E-18   0.00000000000000E+00   0.00000000000000E+00   0.00000000000000E+00   0.00000000000000E+00
      3.72974605820765E-18   3.81560641217810E-34   3.72974605820765E-18  -1.39789138667294E-17   1.78689566594722E-03
      1.78689560006328E-03   0.00000000000000E+00   0.00000000000000E+00   3.46738638188869E-10  -1.91273808753692E-34
      3.46738638188869E-10   4.59798429788546E-18
      4.03050379841723E-02
      0.00000000000000E+00   7.35365534455080E-11   0.00000000000000E+00   0.00000000000000E+00  -3.88133474603575E-10
     -1.81748584809125E-34  -3.88133474603575E-10   5.50209660593017E-18   0.00000000000000E+00   0.00000000000000E+00
      0.00000000000000E+00   0.00000000000000E+00   0.00000000000000E+00   0.00000000000000E+00   0.00000000000000E+00
      3.87559250817219E-18   0.00000000000000E+00   0.00000000000000E+00   0.00000000000000E+00   0.00000000000000E+00
      5.63519919431180E-18   3.64671178349586E-34   5.63519919431180E-18  -1.39787504056559E-17   2.01525189920861E-03
      2.01525182545879E-03   0.00000000000000E+00   0.00000000000000E+00   3.88133468968377E-10  -1.82922593540462E-34
      3.88133468968377E-10   4.60106129155354E-18
      4.53288751159228E-02
      0.00000000000000E+00   8.20223890084696E-11   0.00000000000000E+00   0.00000000000000E+00  -4.32918065408744E-10
     -1.70332996265943E-34  -4.32918065408744E-10   5.50202197820555E-18   0.00000000000000E+00   0.00000000000000E+00
      0.00000000000000E+00   0.00000000000000E+00   0.00000000000000E+00   0.00000000000000E+00   0.00000000000000E+00
      3.87210291898937E-18   0.00000000000000E+00   0.00000000000000E+00   0.00000000000000E+00   0.00000000000000E+00
      1.27924444418747E-17   3.37260193306513E-34   1.27924444418747E-17  -1.39785712496730E-17   2.26644375579614E-03
      2.26644367353618E-03   0.00000000000000E+00   0.00000000000000E+00   4.32918052616299E-10  -1.66927197040571E-34
      4.32918052616299E-10   4.60444635247803E-18
      5.08550959608485E-02
      0.00000000000000E+00   9.11868940860536E-11   0.00000000000000E+00   0.00000000000000E+00  -4.81283010746791E-10
     -1.79725187315561E-34  -4.81283010746791E-10   5.50193989386444E-18   0.00000000000000E+00   0.00000000000000E+00
      0.00000000000000E+00   0.00000000000000E+00   0.00000000000000E+00   0.00000000000000E+00   0.00000000000000E+00
      3.86826470603750E-18   0.00000000000000E+00   0.00000000000000E+00   0.00000000000000E+00   0.00000000000000E+00
      1.21400657731849E-17   3.58814459165184E-34   1.21400657731849E-17  -1.39783749633346E-17   2.54275479804242E-03
      2.54275470659180E-03   0.00000000000000E+00   0.00000000000000E+00   4.81282998606726E-10  -1.79089271849623E-34
      4.81282998606726E-10   4.60817036343261E-18
      5.69339388902666E-02
      0.00000000000000E+00   1.01064654211693E-10   0.00000000000000E+00   0.00000000000000E+00  -5.33410627645711E-10
     -1.69841203319798E-34  -5.33410627645711E-10   5.50184960850330E-18   0.00000000000000E+00   0.00000000000000E+00
      0.00000000000000E+00   0.00000000000000E+00   0.00000000000000E+00   0.00000000000000E+00   0.00000000000000E+00
      3.86404307538989E-18   0.00000000000000E+00   0.00000000000000E+00   0.00000000000000E+00   0.00000000000000E+00
      1.78052994405413E-17   3.57084353397317E-34   1.78052994405413E-17  -1.39781599949434E-17   2.84669694451333E-03
      2.84669684315685E-03   0.00000000000000E+00   0.00000000000000E+00   5.33410609840411E-10  -1.87243150077519E-34
      5.33410609840411E-10   4.61226731105017E-18
      6.36206661126266E-02
      0.00000000000000E+00   1.11687759936567E-10   0.00000000000000E+00   0.00000000000000E+00  -5.89469836892432E-10
     -1.54684388719115E-34  -5.89469836892432E-10   5.50175030352937E-18   0.00000000000000E+00   0.00000000000000E+00
      0.00000000000000E+00   0.00000000000000E+00   0.00000000000000E+00   0.00000000000000E+00   0.00000000000000E+00
      3.85939976743493E-18   0.00000000000000E+00   0.00000000000000E+00   0.00000000000000E+00   0.00000000000000E+00
      1.85855370120681E-17   3.38394069146655E-34   1.85855370120681E-17  -1.39779246703029E-17   3.18103330563133E-03
      3.18103319362162E-03   0.00000000000000E+00   0.00000000000000E+00   5.89469818306895E-10  -1.83709680427540E-34
      5.89469818306895E-10   4.61677459933862E-18
      7.09760660572226E-02
      0.00000000000000E+00   1.23084580103376E-10   0.00000000000000E+00   0.00000000000000E+00  -6.49609851711590E-10
     -1.65556688275830E-34  -6.49609851711590E-10   5.50164107879048E-18   0.00000000000000E+00   0.00000000000000E+00
      0.00000000000000E+00   0.00000000000000E+00   0.00000000000000E+00   0.00000000000000E+00   0.00000000000000E+00
      3.85429271303860E-18   0.00000000000000E+00   0.00000000000000E+00   0.00000000000000E+00   0.00000000000000E+00
      4.33726292031836E-17   3.55880275016329E-34   4.33726292031836E-17  -1.39776671870240E-17   3.54880330286113E-03
      3.54880317942241E-03   0.00000000000000E+00   0.00000000000000E+00   6.49609808338961E-10  -1.90323586740499E-34
      6.49609808338961E-10   4.62173339519492E-18
      7.90670059962782E-02
      0.00000000000000E+00   1.35278372994180E-10   0.00000000000000E+00   0.00000000000000E+00  -7.13953001773622E-10
     -1.71084521546277E-34  -7.13953001773622E-10   5.50152094447656E-18   0.00000000000000E+00   0.00000000000000E+00
      0.00000000000000E+00   0.00000000000000E+00   0.00000000000000E+00   0.00000000000000E+00   0.00000000000000E+00
      3.84867565575979E-18   0.00000000000000E+00   0.00000000000000E+00   0.00000000000000E+00   0.00000000000000E+00
      1.60907533728037E-16   3.41691190852063E-34   1.60907533728037E-16  -1.39773856094236E-17   3.95335029981391E-03
      3.95335016414710E-03   0.00000000000000E+00   0.00000000000000E+00   7.13952840866089E-10  -1.70606669305786E-34
      7.13952840866089E-10   4.62718900918720E-18
      8.79670399292394E-02
      0.00000000000000E+00   1.48285710594170E-10   0.00000000000000E+00   0.00000000000000E+00  -7.82585734507341E-10
     -2.00570562372405E-34  -7.82585734507341E-10   5.50138881222133E-18   0.00000000000000E+00   0.00000000000000E+00
      0.00000000000000E+00   0.00000000000000E+00   0.00000000000000E+00   0.00000000000000E+00   0.00000000000000E+00
      3.84249773690779E-18   0.00000000000000E+00   0.00000000000000E+00   0.00000000000000E+00   0.00000000000000E+00
      8.47475492033167E-17   3.63863695498735E-34   8.47475492033167E-17  -1.39770778644336E-17   4.39835199646197E-03
      4.39835184775142E-03   0.00000000000000E+00   0.00000000000000E+00   7.82585649759792E-10  -1.63293133126329E-34
      7.82585649759792E-10   4.63319131530446E-18
      9.77570772554967E-02
      0.00000000000000E+00   1.62114607354980E-10   0.00000000000000E+00   0.00000000000000E+00  -8.55549957118177E-10
     -1.92017941703059E-34  -8.55549957118177E-10   5.50124348532513E-18   0.00000000000000E+00   0.00000000000000E+00
      0.00000000000000E+00   0.00000000000000E+00   0.00000000000000E+00   0.00000000000000E+00   0.00000000000000E+00
      3.83570303975506E-18   0.00000000000000E+00   0.00000000000000E+00   0.00000000000000E+00   0.00000000000000E+00
      9.87514467075402E-17   3.46270782268577E-34   9.87514467075402E-17  -1.39767417387769E-17   4.88785386277484E-03
      4.88785370019686E-03   0.00000000000000E+00   0.00000000000000E+00   8.55549858366730E-10  -1.54252840565519E-34
      8.55549858366730E-10   4.63979521369674E-18
      1.07757077255497E-01
      0.00000000000000E+00   1.75735752917527E-10   0.00000000000000E+00   0.00000000000000E+00  -9.27414408359775E-10
     -1.70451557227023E-34  -9.27414408359775E-10   5.50109506157978E-18   0.00000000000000E+00   0.00000000000000E+00
      0.00000000000000E+00   0.00000000000000E+00   0.00000000000000E+00   0.00000000000000E+00   0.00000000000000E+00
      3.82876370687051E-18   0.00000000000000E+00   0.00000000000000E+00   0.00000000000000E+00   0.00000000000000E+00
      1.16353046756184E-16   3.30026120818242E-34   1.16353046756184E-16  -1.39764009766800E-17   5.38785386277483E-03
      5.38785368653798E-03   0.00000000000000E+00   0.00000000000000E+00   9.27414292006728E-10  -1.59574563591219E-34
      9.27414292006728E-10   4.64654220822973E-18
      1.17757077255497E-01
      0.00000000000000E+00   1.88861777877486E-10   0.00000000000000E+00   0.00000000000000E+00  -9.96663164093077E-10
     -1.75156858804786E-34  -9.96663164093077E-10   5.50094665776254E-18   0.00000000000000E+00   0.00000000000000E+00
      0.00000000000000E+00   0.00000000000000E+00   0.00000000000000E+00   0.00000000000000E+00   0.00000000000000E+00
      3.82182546329001E-18   0.00000000000000E+00   0.00000000000000E+00   0.00000000000000E+00   0.00000000000000E+00
      1.23435779753578E-16   3.45751405787744E-34   1.23435779753578E-16  -1.39760627967266E-17   5.88785386277483E-03
      5.88785367337578E-03   0.00000000000000E+00   0.00000000000000E+00   9.96663040657296E-10  -1.70594546982958E-34
      9.96663040657296E-10   4.65329067567401E-18
      1.27757077255497E-01
      0.00000000000000E+00   2.01507279957524E-10   0.00000000000000E+00   0.00000000000000E+00  -1.06337346071882E-09
     -1.69822708307895E-34  -1.06337346071882E-09   5.50079827367454E-18   0.00000000000000E+00   0.00000000000000E+00
      0.00000000000000E+00   0.00000000000000E+00   0.00000000000000E+00   0.00000000000000E+00   0.00000000000000E+00
      3.81488829963071E-18   0.00000000000000E+00   0.00000000000000E+00   0.00000000000000E+00   0.00000000000000E+00
      7.58420102830379E-20   3.43043214632610E-34   7.58420102830382E-20  -1.39757271815003E-17   6.38785386277483E-03
      6.38785366069564E-03   0.00000000000000E+00   0.00000000000000E+00   1.06337346064297E-09  -1.73220506324715E-34
      1.06337346064297E-09   4.66004060819508E-18
      1.37757077255497E-01
      0.00000000000000E+00   2.13686746666623E-10   0.00000000000000E+00   0.00000000000000E+00  -1.12762208816194E-09
     -2.07717481978150E-34  -1.12762208816194E-09   5.50064990911765E-18   0.00000000000000E+00   0.00000000000000E+00
      0.00000000000000E+00   0.00000000000000E+00   0.00000000000000E+00   0.00000000000000E+00   0.00000000000000E+00
      3.80795220663871E-18   0.00000000000000E+00   0.00000000000000E+00   0.00000000000000E+00   0.00000000000000E+00
      1.32435292584494E-16   3.77848020931832E-34   1.32435292584494E-16  -1.39753941137801E-17   6.88785386277483E-03
      6.88785364848296E-03   0.00000000000000E+00   0.00000000000000E+00   1.12762195572665E-09  -1.70130538953683E-34
      1.12762195572665E-09   4.66679199802378E-18
      1.47757077255497E-01
      0.00000000000000E+00   2.25414374006556E-10   0.00000000000000E+00   0.00000000000000E+00  -1.18948424818419E-09
     -1.69747412967632E-34  -1.18948424818419E-09   5.50050156389154E-18   0.00000000000000E+00   0.00000000000000E+00
      0.00000000000000E+00   0.00000000000000E+00   0.00000000000000E+00   0.00000000000000E+00   0.00000000000000E+00
      3.80101717507684E-18   0.00000000000000E+00   0.00000000000000E+00   0.00000000000000E+00   0.00000000000000E+00
     -4.06148190864657E-19   3.28917148825881E-34  -4.06148190864657E-19  -1.39750635763846E-17   7.38785386277483E-03
      7.38785363672355E-03   0.00000000000000E+00   0.00000000000000E+00   1.18948424859033E-09  -1.59169735858248E-34
      1.18948424859033E-09   4.67354483741625E-18
      1.57757077255497E-01
      0.00000000000000E+00   2.36704297281704E-10   0.00000000000000E+00   0.00000000000000E+00  -1.24903479545626E-09
     -1.91355334561902E-34  -1.24903479545626E-09   5.50035323779626E-18   0.00000000000000E+00   0.00000000000000E+00
      0.00000000000000E+00   0.00000000000000E+00   0.00000000000000E+00   0.00000000000000E+00   0.00000000000000E+00
      3.79408319576514E-18   0.00000000000000E+00   0.00000000000000E+00   0.00000000000000E+00   0.00000000000000E+00
      1.38650213204409E-16   3.28578429206275E-34   1.38650213204409E-16  -1.39747355522275E-17   7.88785386277484E-03
      7.88785362540319E-03   0.00000000000000E+00   0.00000000000000E+00   1.24903465680605E-09  -1.37223094644373E-34
      1.24903465680605E-09   4.68029911866613E-18
      1.67757077255497E-01
      0.00000000000000E+00   2.47570228512007E-10   0.00000000000000E+00   0.00000000000000E+00  -1.30634638553270E-09
     -1.52771850808816E-34  -1.30634638553270E-09   5.50020493063269E-18   0.00000000000000E+00   0.00000000000000E+00
      0.00000000000000E+00   0.00000000000000E+00   0.00000000000000E+00   0.00000000000000E+00   0.00000000000000E+00
      3.78715025971402E-18   0.00000000000000E+00   0.00000000000000E+00   0.00000000000000E+00   0.00000000000000E+00
      1.84390279575216E-16   3.13992245224188E-34   1.84390279575216E-16  -1.39744100244950E-17   8.38785386277484E-03
      8.38785361450812E-03   0.00000000000000E+00   0.00000000000000E+00   1.30634620114242E-09  -1.61220394415372E-34
      1.30634620114242E-09   4.68705483414834E-18
      1.77757077255497E-01
      0.00000000000000E+00   2.58025739953675E-10   0.00000000000000E+00   0.00000000000000E+00  -1.36149074268829E-09
     -1.81645190345917E-34  -1.36149074268829E-09   5.50005664220118E-18   0.00000000000000E+00   0.00000000000000E+00
      0.00000000000000E+00   0.00000000000000E+00   0.00000000000000E+00   0.00000000000000E+00   0.00000000000000E+00
      3.78021835787762E-18   0.00000000000000E+00   0.00000000000000E+00   0.00000000000000E+00   0.00000000000000E+00
      1.26170658824938E-16   3.34979357715992E-34   1.26170658824938E-16  -1.39740869763345E-17   8.88785386277484E-03
      8.88785360402473E-03   0.00000000000000E+00   0.00000000000000E+00   1.36149061651764E-09  -1.53334167370074E-34
      1.36149061651764E-09   4.69381197625571E-18
      1.87757077255497E-01
      0.00000000000000E+00   2.68084083604312E-10   0.00000000000000E+00   0.00000000000000E+00  -1.41453820154455E-09
     -1.92444154094819E-34  -1.41453820154455E-09   5.49990837230404E-18   0.00000000000000E+00   0.00000000000000E+00
      0.00000000000000E+00   0.00000000000000E+00   0.00000000000000E+00   0.00000000000000E+00   0.00000000000000E+00
      3.77328748137909E-18   0.00000000000000E+00   0.00000000000000E+00   0.00000000000000E+00   0.00000000000000E+00
      1.24539307631328E-16   3.25362642176378E-34   1.24539307631328E-16  -1.39737663911384E-17   9.38785386277484E-03
      9.38785359393970E-03   0.00000000000000E+00   0.00000000000000E+00   1.41453807700524E-09  -1.32918488081559E-34
      1.41453807700524E-09   4.70057053745524E-18
      1.97757077255497E-01
      0.00000000000000E+00   2.77758234330010E-10   0.00000000000000E+00   0.00000000000000E+00  -1.46555741711325E-09