DF-ISE text

Info {
  version   = 1.0
  type      = xyplot
  datasets  = [
    "time"
    "source OuterVoltage" "source InnerVoltage" "source QuasiFermiPotential" "source DisplacementCurrent" "source eCurrent"
    "source hCurrent" "source TotalCurrent" "source Charge" "gate OuterVoltage" "gate InnerVoltage"
    "gate QuasiFermiPotential" "gate DisplacementCurrent" "gate eCurrent" "gate hCurrent" "gate TotalCurrent"
    "gate Charge" "substrate OuterVoltage" "substrate InnerVoltage" "substrate QuasiFermiPotential" "substrate DisplacementCurrent"
    "substrate eCurrent" "substrate hCurrent" "substrate TotalCurrent" "substrate Charge" "drain OuterVoltage"
    "drain InnerVoltage" "drain QuasiFermiPotential" "drain DisplacementCurrent" "drain eCurrent" "drain hCurrent"
    "drain TotalCurrent" "drain Charge" ]
  functions = [
    Time
    OuterVoltage InnerVoltage QuasiFermiPotential DisplacementCurrent eCurrent
    hCurrent TotalCurrent Charge OuterVoltage InnerVoltage
    QuasiFermiPotential DisplacementCurrent eCurrent hCurrent TotalCurrent
    Charge OuterVoltage InnerVoltage QuasiFermiPotential DisplacementCurrent
    eCurrent hCurrent TotalCurrent Charge OuterVoltage
    InnerVoltage QuasiFermiPotential DisplacementCurrent eCurrent hCurrent
    TotalCurrent Charge ]
}

Data {
      0.00000000000000E+00
      0.00000000000000E+00   0.00000000000000E+00   0.00000000000000E+00   0.00000000000000E+00   6.52554515596132E-21
      4.28733986832622E-34   6.52554515596175E-21   4.46362757315779E-18   0.00000000000000E+00   0.00000000000000E+00
      0.00000000000000E+00   0.00000000000000E+00   0.00000000000000E+00   0.00000000000000E+00   0.00000000000000E+00
      1.82199561853718E-18   0.00000000000000E+00   0.00000000000000E+00   0.00000000000000E+00   0.00000000000000E+00
      5.21778384209510E-21  -8.42310756584389E-34   5.21778384209426E-21  -1.04365024003730E-17   0.00000000000000E+00
      0.00000000000000E+00   0.00000000000000E+00   0.00000000000000E+00  -1.17433289980564E-20   4.13576769751766E-34
     -1.17433289980560E-20   4.15087920867806E-18
      0.00000000000000E+00
      0.00000000000000E+00   0.00000000000000E+00   0.00000000000000E+00   0.00000000000000E+00  -8.44896068847071E-20
      4.48774970786571E-34  -8.44896068847067E-20   4.46232042031755E-18   0.00000000000000E+00   0.00000000000000E+00
      0.00000000000000E+00   0.00000000000000E+00   0.00000000000000E+00   0.00000000000000E+00   0.00000000000000E+00
      1.81766848322401E-18   0.00000000000000E+00   0.00000000000000E+00   0.00000000000000E+00   0.00000000000000E+00
      1.16084179207328E-19  -8.68854115857601E-34   1.16084179207327E-19  -1.04297852613915E-17   0.00000000000000E+00
      0.00000000000000E+00   0.00000000000000E+00   0.00000000000000E+00  -3.15945723226204E-20   4.20079145071028E-34
     -3.15945723226200E-20   4.14979635784994E-18
      1.00000000000000E-03
      0.00000000000000E+00   3.40036200099220E-12   0.00000000000000E+00   0.00000000000000E+00  -1.56051155121572E-11
      4.46193596172831E-34  -1.56051155121572E-11   4.46229727900497E-18   0.00000000000000E+00   0.00000000000000E+00
      0.00000000000000E+00   0.00000000000000E+00   0.00000000000000E+00   0.00000000000000E+00   0.00000000000000E+00
      1.81703474806626E-18   0.00000000000000E+00   0.00000000000000E+00   0.00000000000000E+00   0.00000000000000E+00
     -1.59741365003603E-20  -8.63658514111666E-34  -1.59741365003611E-20  -1.04297455370084E-17   5.00000000000000E-05
      4.99999965928820E-05   0.00000000000000E+00   0.00000000000000E+00   1.56051155281313E-11   4.17464917938834E-34
      1.56051155281313E-11   4.15041350993719E-18
      2.09333333333333E-03
      0.00000000000000E+00   7.10613741733815E-12   0.00000000000000E+00   0.00000000000000E+00  -3.26118114193988E-11
      4.41726289477001E-34  -3.26118114193988E-11   4.46227197824696E-18   0.00000000000000E+00   0.00000000000000E+00
      0.00000000000000E+00   0.00000000000000E+00   0.00000000000000E+00   0.00000000000000E+00   0.00000000000000E+00
      1.81634187406732E-18   0.00000000000000E+00   0.00000000000000E+00   0.00000000000000E+00   0.00000000000000E+00
      1.06011466547708E-19  -8.59471771887497E-34   1.06011466547708E-19  -1.04297021305232E-17   1.04666666666667E-04
      1.04666659546430E-04   0.00000000000000E+00   0.00000000000000E+00   3.26118113133874E-11   4.17745482410495E-34
      3.26118113133874E-11   4.15108827820892E-18
      3.29600000000000E-03
      0.00000000000000E+00   1.11674272679525E-11   0.00000000000000E+00   0.00000000000000E+00  -5.12500660471677E-11
      4.67050887048045E-34  -5.12500660471677E-11   4.46224414791091E-18   0.00000000000000E+00   0.00000000000000E+00
      0.00000000000000E+00   0.00000000000000E+00   0.00000000000000E+00   0.00000000000000E+00   0.00000000000000E+00
      1.81557972445094E-18   0.00000000000000E+00   0.00000000000000E+00   0.00000000000000E+00   0.00000000000000E+00
      2.35072203224258E-19  -8.83074869971495E-34   2.35072203224257E-19  -1.04296544141432E-17   1.64800000000000E-04
      1.64799988810411E-04   0.00000000000000E+00   0.00000000000000E+00   5.12500658120955E-11   4.16023982923448E-34
      5.12500658120955E-11   4.15183054178137E-18
      4.61893333333333E-03
      0.00000000000000E+00   1.56162060715959E-11   0.00000000000000E+00   0.00000000000000E+00  -7.16665468220847E-11
      4.56628830414568E-34  -7.16665468220847E-11   4.46221353514532E-18   0.00000000000000E+00   0.00000000000000E+00
      0.00000000000000E+00   0.00000000000000E+00   0.00000000000000E+00   0.00000000000000E+00   0.00000000000000E+00
      1.81474137411723E-18   0.00000000000000E+00   0.00000000000000E+00   0.00000000000000E+00   0.00000000000000E+00
     -1.46763505485091E-19  -8.86471163667182E-34  -1.46763505485091E-19  -1.04296019633110E-17   2.30946666666667E-04
      2.30946651019470E-04   0.00000000000000E+00   0.00000000000000E+00   7.16665469688482E-11   4.29842333252613E-34
      7.16665469688482E-11   4.15264705404843E-18
      6.07416000000000E-03
      0.00000000000000E+00   2.04869526848946E-11   0.00000000000000E+00   0.00000000000000E+00  -9.40194220652516E-11
      4.65268671894188E-34  -9.40194220652516E-11   4.46217986183536E-18   0.00000000000000E+00   0.00000000000000E+00
      0.00000000000000E+00   0.00000000000000E+00   0.00000000000000E+00   0.00000000000000E+00   0.00000000000000E+00
      1.81381920596896E-18   0.00000000000000E+00   0.00000000000000E+00   0.00000000000000E+00   0.00000000000000E+00
      8.82745038654011E-20  -8.88869760869828E-34   8.82745038654002E-20  -1.04295443123552E-17   3.03708000000000E-04
      3.03707979472408E-04   0.00000000000000E+00   0.00000000000000E+00   9.40194219769770E-11   4.23601088975640E-34
      9.40194219769770E-11   4.15354524455086E-18
      7.67490933333333E-03
      0.00000000000000E+00   2.58167022145832E-11   0.00000000000000E+00   0.00000000000000E+00  -1.18478703383419E-10
      4.36245867622669E-34  -1.18478703383419E-10   4.46214282208149E-18   0.00000000000000E+00   0.00000000000000E+00
      0.00000000000000E+00   0.00000000000000E+00   0.00000000000000E+00   0.00000000000000E+00   0.00000000000000E+00
      1.81280484181840E-18   0.00000000000000E+00   0.00000000000000E+00   0.00000000000000E+00   0.00000000000000E+00
      3.94747115411856E-20  -8.49245746340752E-34   3.94747115411848E-20  -1.04294809506589E-17   3.83745466666667E-04
      3.83745440798758E-04   0.00000000000000E+00   0.00000000000000E+00   1.18478703343944E-10   4.12999878718083E-34
      1.18478703343944E-10   4.15453328675905E-18
      9.43573360000000E-03
      0.00000000000000E+00   3.16451572580245E-11   0.00000000000000E+00   0.00000000000000E+00  -1.45226548414886E-10
      4.47662491868572E-34  -1.45226548414886E-10   4.46210207942647E-18   0.00000000000000E+00   0.00000000000000E+00
      0.00000000000000E+00   0.00000000000000E+00   0.00000000000000E+00   0.00000000000000E+00   0.00000000000000E+00
      1.81168906640663E-18   0.00000000000000E+00   0.00000000000000E+00   0.00000000000000E+00   0.00000000000000E+00
      1.36564061021766E-19  -8.59776012986842E-34   1.36564061021765E-19  -1.04294113185019E-17   4.71786680000000E-04
      4.71786648292082E-04   0.00000000000000E+00   0.00000000000000E+00   1.45226548278321E-10   4.12113521118269E-34
      1.45226548278321E-10   4.15562017266877E-18
      1.13726402933333E-02
      0.00000000000000E+00   3.80147204196697E-11   0.00000000000000E+00   0.00000000000000E+00  -1.74457466410762E-10
      4.57900848277038E-34  -1.74457466410762E-10   4.46205726380637E-18   0.00000000000000E+00   0.00000000000000E+00
      0.00000000000000E+00   0.00000000000000E+00   0.00000000000000E+00   0.00000000000000E+00   0.00000000000000E+00
      1.81046174385032E-18   0.00000000000000E+00   0.00000000000000E+00   0.00000000000000E+00   0.00000000000000E+00
      1.89257014136390E-19  -8.84429473011330E-34   1.89257014136389E-19  -1.04293348025555E-17   5.68632014666667E-04
      5.68631976576561E-04   0.00000000000000E+00   0.00000000000000E+00   1.74457466221505E-10   4.26528624734291E-34
      1.74457466221505E-10   4.15681579489885E-18
      1.35032376560000E-02
      0.00000000000000E+00   4.49704851836309E-11   0.00000000000000E+00   0.00000000000000E+00  -2.06378346160377E-10
      4.76207203393241E-34  -2.06378346160377E-10   4.46200796819794E-18   0.00000000000000E+00   0.00000000000000E+00
      0.00000000000000E+00   0.00000000000000E+00   0.00000000000000E+00   0.00000000000000E+00   0.00000000000000E+00
      1.80911172576565E-18   0.00000000000000E+00   0.00000000000000E+00   0.00000000000000E+00   0.00000000000000E+00
      5.86197971306872E-19  -8.74461824658960E-34   5.86197971306871E-19  -1.04292507310122E-17   6.75161882800000E-04
      6.75161837740362E-04   0.00000000000000E+00   0.00000000000000E+00   2.06378345574179E-10   3.98254621265718E-34
      2.06378345574179E-10   4.15813103704864E-18
      1.58468947549333E-02
      0.00000000000000E+00   5.25602085313992E-11   0.00000000000000E+00   0.00000000000000E+00  -2.41208279830183E-10
      4.54301727548452E-34  -2.41208279830183E-10   4.46195374493251E-18   0.00000000000000E+00   0.00000000000000E+00
      0.00000000000000E+00   0.00000000000000E+00   0.00000000000000E+00   0.00000000000000E+00   0.00000000000000E+00
      1.80762675024289E-18   0.00000000000000E+00   0.00000000000000E+00   0.00000000000000E+00   0.00000000000000E+00
      1.33776516489856E-18  -8.57802467062679E-34   1.33776516489856E-18  -1.04291583683286E-17   7.92344737746667E-04
      7.92344685082281E-04   0.00000000000000E+00   0.00000000000000E+00   2.41208278492417E-10   4.03500739514226E-34
      2.41208278492417E-10   4.15957787315321E-18
      1.84249175637600E-02
      0.00000000000000E+00   6.08342042650380E-11   0.00000000000000E+00   0.00000000000000E+00  -2.79178090089049E-10
      4.54532067774832E-34  -2.79178090089049E-10   4.46189410164338E-18   0.00000000000000E+00   0.00000000000000E+00
      0.00000000000000E+00   0.00000000000000E+00   0.00000000000000E+00   0.00000000000000E+00   0.00000000000000E+00
      1.80599333076749E-18   0.00000000000000E+00   0.00000000000000E+00   0.00000000000000E+00   0.00000000000000E+00
      2.11847582594215E-18  -8.83005865631586E-34   2.11847582594215E-18  -1.04290569095697E-17   9.21245878188001E-04
      9.21245817233249E-04   0.00000000000000E+00   0.00000000000000E+00   2.79178087970573E-10   4.28473797856754E-34
      2.79178087970573E-10   4.16116947715887E-18
      2.12607426534693E-02
      0.00000000000000E+00   6.98451861295267E-11   0.00000000000000E+00   0.00000000000000E+00  -3.20529566676152E-10
      4.42302360361014E-34  -3.20529566676152E-10   4.46182849680975E-18   0.00000000000000E+00   0.00000000000000E+00
      0.00000000000000E+00   0.00000000000000E+00   0.00000000000000E+00   0.00000000000000E+00   0.00000000000000E+00
      1.80419663407554E-18   0.00000000000000E+00   0.00000000000000E+00   0.00000000000000E+00   0.00000000000000E+00
      1.03009954096630E-18  -8.50842840723491E-34   1.03009954096630E-18  -1.04289454743135E-17   1.06303713267347E-03
      1.06303706268991E-03   0.00000000000000E+00   0.00000000000000E+00   3.20529565646053E-10   4.08540480362477E-34
      3.20529565646053E-10   4.16292034342826E-18
      2.43801502521496E-02
      0.00000000000000E+00   7.96479842920497E-11   0.00000000000000E+00   0.00000000000000E+00  -3.65514217562572E-10
      4.54775527580164E-34  -3.65514217562572E-10   4.46175633485848E-18   0.00000000000000E+00   0.00000000000000E+00
      0.00000000000000E+00   0.00000000000000E+00   0.00000000000000E+00   0.00000000000000E+00   0.00000000000000E+00
      1.80222034587724E-18   0.00000000000000E+00   0.00000000000000E+00   0.00000000000000E+00   0.00000000000000E+00
      1.51829961447548E-18  -8.59264013631312E-34   1.51829961447548E-18  -1.04288231001468E-17   1.21900751260748E-03
      1.21900743280175E-03   0.00000000000000E+00   0.00000000000000E+00   3.65514216044272E-10   4.04488486051149E-34
      3.65514216044272E-10   4.16484641941114E-18
      2.78114986106979E-02
      0.00000000000000E+00   9.02991785335121E-11   0.00000000000000E+00   0.00000000000000E+00  -4.14391542799665E-10
      4.49311125079687E-34  -4.14391542799665E-10   4.46167696077927E-18   0.00000000000000E+00   0.00000000000000E+00
      0.00000000000000E+00   0.00000000000000E+00   0.00000000000000E+00   0.00000000000000E+00   0.00000000000000E+00
      1.80004652321872E-18   0.00000000000000E+00   0.00000000000000E+00   0.00000000000000E+00   0.00000000000000E+00
      2.04971706549612E-18  -8.35107389649156E-34   2.04971706549612E-18  -1.04286887357018E-17   1.39057493053490E-03
      1.39057484005692E-03   0.00000000000000E+00   0.00000000000000E+00   4.14391540749948E-10   3.85796264569468E-34
      4.14391540749948E-10   4.16696525170383E-18
      3.15859818051010E-02
      0.00000000000000E+00   1.01856602515144E-10   0.00000000000000E+00   0.00000000000000E+00  -4.67426657852158E-10
      4.55130772142192E-34  -4.67426657852158E-10   4.46158965420542E-18   0.00000000000000E+00   0.00000000000000E+00
      0.00000000000000E+00   0.00000000000000E+00   0.00000000000000E+00   0.00000000000000E+00   0.00000000000000E+00
      1.79765543218378E-18   0.00000000000000E+00   0.00000000000000E+00   0.00000000000000E+00   0.00000000000000E+00
      3.19904021124856E-18  -8.54848472810471E-34   3.19904021124856E-18  -1.04285412332620E-17   1.57929909025505E-03
      1.57929898819683E-03   0.00000000000000E+00   0.00000000000000E+00   4.67426654653118E-10   3.99717700668277E-34
      4.67426654653118E-10   4.16929614687282E-18
      3.57379133189445E-02
      0.00000000000000E+00   1.14378599893177E-10   0.00000000000000E+00   0.00000000000000E+00  -5.24887202764350E-10
      4.38748117658524E-34  -5.24887202764350E-10   4.46149362290752E-18   0.00000000000000E+00   0.00000000000000E+00
      0.00000000000000E+00   0.00000000000000E+00   0.00000000000000E+00   0.00000000000000E+00   0.00000000000000E+00
      1.79502536947286E-18   0.00000000000000E+00   0.00000000000000E+00   0.00000000000000E+00   0.00000000000000E+00
      4.63449045168909E-18  -8.21340367417794E-34   4.63449045168909E-18  -1.04283793409231E-17   1.78689566594722E-03
      1.78689555134229E-03   0.00000000000000E+00   0.00000000000000E+00   5.24887198129859E-10   3.82592249759269E-34
      5.24887198129859E-10   4.17186034854263E-18
      4.03050379841723E-02
      0.00000000000000E+00   1.27923259326342E-10   0.00000000000000E+00   0.00000000000000E+00  -5.87039388332555E-10
      4.50698085821410E-34  -5.87039388332555E-10   4.46138799564255E-18   0.00000000000000E+00   0.00000000000000E+00
      0.00000000000000E+00   0.00000000000000E+00   0.00000000000000E+00   0.00000000000000E+00   0.00000000000000E+00
      1.79213246627563E-18   0.00000000000000E+00   0.00000000000000E+00   0.00000000000000E+00   0.00000000000000E+00
      6.78104736556548E-18  -8.30157305167648E-34   6.78104736556548E-18  -1.04282016943329E-17   2.01525189920861E-03
      2.01525177103229E-03   0.00000000000000E+00   0.00000000000000E+00   5.87039381551508E-10   3.79459219346237E-34
      5.87039381551508E-10   4.17468123241469E-18
      4.53288751159228E-02
      0.00000000000000E+00   1.42547258715386E-10   0.00000000000000E+00   0.00000000000000E+00  -6.54143007425329E-10
      4.60633874663275E-34  -6.54143007425329E-10   4.46127181429471E-18   0.00000000000000E+00   0.00000000000000E+00
      0.00000000000000E+00   0.00000000000000E+00   0.00000000000000E+00   0.00000000000000E+00   0.00000000000000E+00
      1.78895047270351E-18   0.00000000000000E+00   0.00000000000000E+00   0.00000000000000E+00   0.00000000000000E+00
      9.52895857138947E-18  -8.66441260984767E-34   9.52895857138946E-18  -1.04280068080587E-17   2.26644375579614E-03
      2.26644361296699E-03   0.00000000000000E+00   0.00000000000000E+00   6.54142997896371E-10   4.05807386321492E-34
      6.54142997896371E-10   4.17778452106044E-18
      5.08550959608485E-02
      0.00000000000000E+00   1.58304589645111E-10   0.00000000000000E+00   0.00000000000000E+00  -7.26445442699806E-10
      4.59752211049157E-34  -7.26445442699806E-10   4.46114402523759E-18   0.00000000000000E+00   0.00000000000000E+00
      0.00000000000000E+00   0.00000000000000E+00   0.00000000000000E+00   0.00000000000000E+00   0.00000000000000E+00
      1.78545052082301E-18   0.00000000000000E+00   0.00000000000000E+00   0.00000000000000E+00   0.00000000000000E+00
      1.53248452750231E-17  -8.54603152224669E-34   1.53248452750231E-17  -1.04277930665554E-17   2.54275479804242E-03
      2.54275463942490E-03   0.00000000000000E+00   0.00000000000000E+00   7.26445427374961E-10   3.94850941175511E-34
      7.26445427374961E-10   4.18119852049479E-18
      5.69339388902666E-02
      0.00000000000000E+00   1.75244938977418E-10   0.00000000000000E+00   0.00000000000000E+00  -8.04174313589125E-10
      4.38180683182669E-34  -8.04174313589125E-10   4.46100346984305E-18   0.00000000000000E+00   0.00000000000000E+00
      0.00000000000000E+00   0.00000000000000E+00   0.00000000000000E+00   0.00000000000000E+00   0.00000000000000E+00
      1.78160086424908E-18   0.00000000000000E+00   0.00000000000000E+00   0.00000000000000E+00   0.00000000000000E+00
      8.82123357770430E-19  -8.17645071161472E-34   8.82123357770429E-19  -1.04275587148938E-17   2.84669694451333E-03
      2.84669676892206E-03   0.00000000000000E+00   0.00000000000000E+00   8.04174312707002E-10   3.79464387978802E-34
      8.04174312707002E-10   4.18495438080168E-18
      6.36206661126266E-02
      0.00000000000000E+00   1.93411830278924E-10   0.00000000000000E+00   0.00000000000000E+00  -8.87528759866654E-10
      4.44397198942141E-34  -8.87528759866654E-10   4.46084887405307E-18   0.00000000000000E+00   0.00000000000000E+00
      0.00000000000000E+00   0.00000000000000E+00   0.00000000000000E+00   0.00000000000000E+00   0.00000000000000E+00
      1.77736659196477E-18   0.00000000000000E+00   0.00000000000000E+00   0.00000000000000E+00   0.00000000000000E+00
      2.72292222144230E-17  -8.15202110393856E-34   2.72292222144230E-17  -1.04273018492966E-17   3.18103330563133E-03
      3.18103311183739E-03   0.00000000000000E+00   0.00000000000000E+00   8.87528732637431E-10   3.70804911451714E-34
      8.87528732637431E-10   4.18908638327872E-18
      7.09760660572226E-02
      0.00000000000000E+00   2.12840371057809E-10   0.00000000000000E+00   0.00000000000000E+00  -9.76669250445291E-10
      4.48262038447144E-34  -9.76669250445291E-10   4.46067883692149E-18   0.00000000000000E+00   0.00000000000000E+00
      0.00000000000000E+00   0.00000000000000E+00   0.00000000000000E+00   0.00000000000000E+00   0.00000000000000E+00
      1.77270931384972E-18   0.00000000000000E+00   0.00000000000000E+00   0.00000000000000E+00   0.00000000000000E+00
      1.72915437777258E-17  -8.23183952203099E-34   1.72915437777258E-17  -1.04270204076157E-17   3.54880330286113E-03
      3.54880308960048E-03   0.00000000000000E+00   0.00000000000000E+00   9.76669233153749E-10   3.74921913755955E-34
      9.76669233153749E-10   4.19363225684443E-18
      7.90670059962782E-02
      0.00000000000000E+00   2.33554676547466E-10   0.00000000000000E+00   0.00000000000000E+00  -1.07170603416124E-09
      4.50739990943607E-34  -1.07170603416124E-09   4.46049181802418E-18   0.00000000000000E+00   0.00000000000000E+00
      0.00000000000000E+00   0.00000000000000E+00   0.00000000000000E+00   0.00000000000000E+00   0.00000000000000E+00
      1.76758681509699E-18   0.00000000000000E+00   0.00000000000000E+00   0.00000000000000E+00   0.00000000000000E+00
      1.13339402043929E-16  -8.22903612193013E-34   1.13339402043929E-16  -1.04267121598279E-17   3.95335029981391E-03
      3.95335006579824E-03   0.00000000000000E+00   0.00000000000000E+00   1.07170592082184E-09   3.72163621249404E-34
      1.07170592082184E-09   4.19863352670674E-18
      8.79670399292394E-02
      0.00000000000000E+00   2.55565081847919E-10   0.00000000000000E+00   0.00000000000000E+00  -1.17268567764917E-09
      4.50163964369087E-34  -1.17268567764917E-09   4.46028612363148E-18   0.00000000000000E+00   0.00000000000000E+00
      0.00000000000000E+00   0.00000000000000E+00   0.00000000000000E+00   0.00000000000000E+00   0.00000000000000E+00
      1.76195267656474E-18   0.00000000000000E+00   0.00000000000000E+00   0.00000000000000E+00   0.00000000000000E+00
      1.02589441275042E-16  -7.98460261619042E-34   1.02589441275042E-16  -1.04263746988979E-17   4.39835199646197E-03
      4.39835174039266E-03   0.00000000000000E+00   0.00000000000000E+00   1.17268557505973E-09   3.48296297249954E-34
      1.17268557505973E-09   4.20413589870164E-18
      9.77570772554967E-02
      0.00000000000000E+00   2.78864800146505E-10   0.00000000000000E+00   0.00000000000000E+00  -1.27957648835354E-09
      4.57309115878942E-34  -1.27957648835354E-09   4.46005989151883E-18   0.00000000000000E+00   0.00000000000000E+00
      0.00000000000000E+00   0.00000000000000E+00   0.00000000000000E+00   0.00000000000000E+00   0.00000000000000E+00
      1.75575585777681E-18   0.00000000000000E+00   0.00000000000000E+00   0.00000000000000E+00   0.00000000000000E+00
      1.50392099221709E-16  -8.09274679040386E-34   1.50392099221709E-16  -1.04260054322915E-17   4.88785386277484E-03
      4.88785358336011E-03   0.00000000000000E+00   0.00000000000000E+00   1.27957633796144E-09   3.51965563161443E-34
      1.27957633796144E-09   4.21018968299585E-18
      1.07757077255497E-01
      0.00000000000000E+00   3.01709110023665E-10   0.00000000000000E+00   0.00000000000000E+00  -1.38437398900027E-09
      4.35484944797326E-34  -1.38437398900027E-09   4.45982884154651E-18   0.00000000000000E+00   0.00000000000000E+00
      0.00000000000000E+00   0.00000000000000E+00   0.00000000000000E+00   0.00000000000000E+00   0.00000000000000E+00
      1.74942692631618E-18   0.00000000000000E+00   0.00000000000000E+00   0.00000000000000E+00   0.00000000000000E+00
      1.58660184244668E-16  -7.96911619026340E-34   1.58660184244668E-16  -1.04256303333300E-17   5.38785386277483E-03
      5.38785356047103E-03   0.00000000000000E+00   0.00000000000000E+00   1.38437383034008E-09   3.61426674229013E-34
      1.38437383034008E-09   4.21637456546733E-18
      1.17757077255497E-01
      0.00000000000000E+00   3.23620363510892E-10   0.00000000000000E+00   0.00000000000000E+00  -1.48488726459568E-09
      4.46456953806203E-34  -1.48488726459568E-09   4.45959782570226E-18   0.00000000000000E+00   0.00000000000000E+00
      0.00000000000000E+00   0.00000000000000E+00   0.00000000000000E+00   0.00000000000000E+00   0.00000000000000E+00
      1.74309878533140E-18   0.00000000000000E+00   0.00000000000000E+00   0.00000000000000E+00   0.00000000000000E+00
      1.05737694233583E-19  -7.80534140533905E-34   1.05737694233582E-19  -1.04252573318640E-17   5.88785386277483E-03
      5.88785353851687E-03   0.00000000000000E+00   0.00000000000000E+00   1.48488726448994E-09   3.34077186727701E-34
      1.48488726448994E-09   4.22256072083034E-18
      1.27757077255497E-01
      0.00000000000000E+00   3.44630751903345E-10   0.00000000000000E+00   0.00000000000000E+00  -1.58126462898683E-09
      4.45086246155492E-34  -1.58126462898683E-09   4.45936684371056E-18   0.00000000000000E+00   0.00000000000000E+00
      0.00000000000000E+00   0.00000000000000E+00   0.00000000000000E+00   0.00000000000000E+00   0.00000000000000E+00
      1.73677142919492E-18   0.00000000000000E+00   0.00000000000000E+00   0.00000000000000E+00   0.00000000000000E+00
      1.94829170453373E-16  -7.79665254908407E-34   1.94829170453373E-16  -1.04248864161823E-17   6.38785386277483E-03
      6.38785351746538E-03   0.00000000000000E+00   0.00000000000000E+00   1.58126443415766E-09   3.34579008752914E-34
      1.58126443415766E-09   4.22874814327686E-18
      1.37757077255497E-01
      0.00000000000000E+00   3.64771889186406E-10   0.00000000000000E+00   0.00000000000000E+00  -1.67365127559436E-09
      4.63878060943793E-34  -1.67365127559436E-09   4.45913589528135E-18   0.00000000000000E+00   0.00000000000000E+00
      0.00000000000000E+00   0.00000000000000E+00   0.00000000000000E+00   0.00000000000000E+00   0.00000000000000E+00
      1.73044485212151E-18   0.00000000000000E+00   0.00000000000000E+00   0.00000000000000E+00   0.00000000000000E+00
      1.56618926131196E-16  -8.00639587247822E-34   1.56618926131196E-16  -1.04245175743393E-17   6.88785386277483E-03
      6.88785349728488E-03   0.00000000000000E+00   0.00000000000000E+00   1.67365111897543E-09   3.36761526304030E-34
      1.67365111897543E-09   4.23493682693641E-18
      1.47757077255497E-01
      0.00000000000000E+00   3.84074810894753E-10   0.00000000000000E+00   0.00000000000000E+00  -1.76219054314902E-09
      4.41625501867611E-34  -1.76219054314902E-09   4.45890498012962E-18   0.00000000000000E+00   0.00000000000000E+00
      0.00000000000000E+00   0.00000000000000E+00   0.00000000000000E+00   0.00000000000000E+00   0.00000000000000E+00
      1.72411904846927E-18   0.00000000000000E+00   0.00000000000000E+00   0.00000000000000E+00   0.00000000000000E+00
      1.43045666937852E-16  -7.67325141393535E-34   1.43045666937852E-16  -1.04241507946220E-17   7.38785386277483E-03
      7.38785347794412E-03   0.00000000000000E+00   0.00000000000000E+00   1.76219040010335E-09   3.25699639525922E-34
      1.76219040010335E-09   4.24112676602306E-18
      1.57757077255497E-01
      0.00000000000000E+00   4.02570038574812E-10   0.00000000000000E+00   0.00000000000000E+00  -1.84702229188542E-09
      4.68397646237287E-34  -1.84702229188542E-09   4.45867409797232E-18   0.00000000000000E+00   0.00000000000000E+00
      0.00000000000000E+00   0.00000000000000E+00   0.00000000000000E+00   0.00000000000000E+00   0.00000000000000E+00
      1.71779401268019E-18   0.00000000000000E+00   0.00000000000000E+00   0.00000000000000E+00   0.00000000000000E+00
      1.41465967717143E-16  -7.83003069382405E-34   1.41465967717143E-16  -1.04237860654661E-17   7.88785386277484E-03
      7.88785345941278E-03   0.00000000000000E+00   0.00000000000000E+00   1.84702215041946E-09   3.14605423145116E-34
      1.84702215041946E-09   4.24731795481360E-18
      1.67757077255497E-01
      0.00000000000000E+00   4.20287301968694E-10   0.00000000000000E+00   0.00000000000000E+00  -1.92828348907499E-09
      4.50430295280748E-34  -1.92828348907499E-09   4.45844324851979E-18   0.00000000000000E+00   0.00000000000000E+00
      0.00000000000000E+00   0.00000000000000E+00   0.00000000000000E+00   0.00000000000000E+00   0.00000000000000E+00
      1.71146973912618E-18   0.00000000000000E+00   0.00000000000000E+00   0.00000000000000E+00   0.00000000000000E+00
      1.64848648852572E-16  -7.62949442073598E-34   1.64848648852572E-16  -1.04234233752040E-17   8.38785386277484E-03
      8.38785344166096E-03   0.00000000000000E+00   0.00000000000000E+00   1.92828332422635E-09   3.12519146792849E-34
      1.92828332422635E-09   4.25351038755796E-18
      1.77757077255497E-01
      0.00000000000000E+00   4.37255570960184E-10   0.00000000000000E+00   0.00000000000000E+00  -2.00610748514867E-09
      4.55836423681289E-34  -2.00610748514867E-09   4.45821243148413E-18   0.00000000000000E+00   0.00000000000000E+00
      0.00000000000000E+00   0.00000000000000E+00   0.00000000000000E+00   0.00000000000000E+00   0.00000000000000E+00
      1.70514622225890E-18   0.00000000000000E+00   0.00000000000000E+00   0.00000000000000E+00   0.00000000000000E+00
      1.37657224512695E-16  -7.51765267675114E-34   1.37657224512695E-16  -1.04230627123074E-17   8.88785386277484E-03
      8.88785342465959E-03   0.00000000000000E+00   0.00000000000000E+00   2.00610734749145E-09   2.95928843993825E-34
      2.00610734749145E-09   4.25970405856442E-18
      1.87757077255497E-01
      0.00000000000000E+00   4.53503072688672E-10   0.00000000000000E+00   0.00000000000000E+00  -2.08062411293235E-09
      4.52686931771090E-34  -2.08062411293235E-09   4.45798164657845E-18   0.00000000000000E+00   0.00000000000000E+00
      0.00000000000000E+00   0.00000000000000E+00   0.00000000000000E+00   0.00000000000000E+00   0.00000000000000E+00
      1.69882345659592E-18   0.00000000000000E+00   0.00000000000000E+00   0.00000000000000E+00   0.00000000000000E+00
      1.35822740418835E-16  -7.52858909257746E-34   1.35822740418835E-16  -1.04227040653456E-17   9.38785386277484E-03
      9.38785340838045E-03   0.00000000000000E+00   0.00000000000000E+00   2.08062397710961E-09   3.00171977486655E-34
      2.08062397710961E-09   4.26589896217125E-18
      1.97757077255497E-01
      0.00000000000000E+00   4.69057259032692E-10   0.00000000000000E+00   0.00000000000000E+00  -2.15195964577313E-09