DF-ISE text

Info {
  version   = 1.0
  type      = xyplot
  datasets  = [
    "time"
    "source OuterVoltage" "source InnerVoltage" "source QuasiFermiPotential" "source DisplacementCurrent" "source eCurrent"
    "source hCurrent" "source TotalCurrent" "source Charge" "gate OuterVoltage" "gate InnerVoltage"
    "gate QuasiFermiPotential" "gate DisplacementCurrent" "gate eCurrent" "gate hCurrent" "gate TotalCurrent"
    "gate Charge" "substrate OuterVoltage" "substrate InnerVoltage" "substrate QuasiFermiPotential" "substrate DisplacementCurrent"
    "substrate eCurrent" "substrate hCurrent" "substrate TotalCurrent" "substrate Charge" "drain OuterVoltage"
    "drain InnerVoltage" "drain QuasiFermiPotential" "drain DisplacementCurrent" "drain eCurrent" "drain hCurrent"
    "drain TotalCurrent" "drain Charge" ]
  functions = [
    Time
    OuterVoltage InnerVoltage QuasiFermiPotential DisplacementCurrent eCurrent
    hCurrent TotalCurrent Charge OuterVoltage InnerVoltage
    QuasiFermiPotential DisplacementCurrent eCurrent hCurrent TotalCurrent
    Charge OuterVoltage InnerVoltage QuasiFermiPotential DisplacementCurrent
    eCurrent hCurrent TotalCurrent Charge OuterVoltage
    InnerVoltage QuasiFermiPotential DisplacementCurrent eCurrent hCurrent
    TotalCurrent Charge ]
}

Data {
      0.00000000000000E+00
      0.00000000000000E+00   0.00000000000000E+00   0.00000000000000E+00   0.00000000000000E+00  -3.77345441184655E-22
     -1.31801385613507E-34  -3.77345441184786E-22   4.88346136930292E-18   0.00000000000000E+00   0.00000000000000E+00
      0.00000000000000E+00   0.00000000000000E+00   0.00000000000000E+00   0.00000000000000E+00   0.00000000000000E+00
      3.84808704292017E-18   0.00000000000000E+00   0.00000000000000E+00   0.00000000000000E+00   0.00000000000000E+00
     -1.16926769629718E-21   3.13424068463925E-34  -1.16926769629686E-21  -1.26880335255428E-17   0.00000000000000E+00
      0.00000000000000E+00   0.00000000000000E+00   0.00000000000000E+00   1.54661313748183E-21  -1.81622682850418E-34
      1.54661313748165E-21   3.95648511331973E-18
      0.00000000000000E+00
      0.00000000000000E+00   0.00000000000000E+00   0.00000000000000E+00   0.00000000000000E+00  -8.70225742051413E-21
     -1.65448225180628E-34  -8.70225742051430E-21   4.88186739785860E-18   0.00000000000000E+00   0.00000000000000E+00
      0.00000000000000E+00   0.00000000000000E+00   0.00000000000000E+00   0.00000000000000E+00   0.00000000000000E+00
      3.84224024032157E-18   0.00000000000000E+00   0.00000000000000E+00   0.00000000000000E+00   0.00000000000000E+00
      1.00231605763104E-20   3.62907871218902E-34   1.00231605763107E-20  -1.26794837334508E-17   0.00000000000000E+00
      0.00000000000000E+00   0.00000000000000E+00   0.00000000000000E+00  -1.32090315579624E-21  -1.97459646038274E-34
     -1.32090315579644E-21   3.95537609527058E-18
      1.00000000000000E-03
      0.00000000000000E+00   1.56471507856223E-12   0.00000000000000E+00   0.00000000000000E+00  -7.31026207471476E-12
     -1.45366975868696E-34  -7.31026207471476E-12   4.88185357947180E-18   0.00000000000000E+00   0.00000000000000E+00
      0.00000000000000E+00   0.00000000000000E+00   0.00000000000000E+00   0.00000000000000E+00   0.00000000000000E+00
      3.84164971881268E-18   0.00000000000000E+00   0.00000000000000E+00   0.00000000000000E+00   0.00000000000000E+00
     -1.21421963977945E-19   3.16824120366749E-34  -1.21421963977944E-19  -1.26794653549184E-17   5.00000000000000E-05
      4.99999984245830E-05   0.00000000000000E+00   0.00000000000000E+00   7.31026219613672E-12  -1.71457144498053E-34
      7.31026219613672E-12   3.95596205663395E-18
      2.09333333333333E-03
      0.00000000000000E+00   3.27035705386461E-12   0.00000000000000E+00   0.00000000000000E+00  -1.52789111078356E-11
     -1.47005389905072E-34  -1.52789111078356E-11   4.88183847154371E-18   0.00000000000000E+00   0.00000000000000E+00
      0.00000000000000E+00   0.00000000000000E+00   0.00000000000000E+00   0.00000000000000E+00   0.00000000000000E+00
      3.84100409127590E-18   0.00000000000000E+00   0.00000000000000E+00   0.00000000000000E+00   0.00000000000000E+00
     -7.47131830282975E-22   3.08444497253465E-34  -7.47131830282667E-22  -1.26794452819280E-17   1.04666666666667E-04
      1.04666663373951E-04   0.00000000000000E+00   0.00000000000000E+00   1.52789111085827E-11  -1.61439107348393E-34
      1.52789111085827E-11   3.95660271910840E-18
      3.29600000000000E-03
      0.00000000000000E+00   5.14017094364390E-12   0.00000000000000E+00   0.00000000000000E+00  -2.40145752144551E-11
     -1.30921991175994E-34  -2.40145752144551E-11   4.88182185303453E-18   0.00000000000000E+00   0.00000000000000E+00
      0.00000000000000E+00   0.00000000000000E+00   0.00000000000000E+00   0.00000000000000E+00   0.00000000000000E+00
      3.84029391221103E-18   0.00000000000000E+00   0.00000000000000E+00   0.00000000000000E+00   0.00000000000000E+00
     -7.24323207820181E-21   2.86909832096079E-34  -7.24323207820153E-21  -1.26794232267993E-17   1.64800000000000E-04
      1.64799994824679E-04   0.00000000000000E+00   0.00000000000000E+00   2.40145752216983E-11  -1.55987840920085E-34
      2.40145752216983E-11   3.95730746155380E-18
      4.61893333333333E-03
      0.00000000000000E+00   7.18911526787084E-12   0.00000000000000E+00   0.00000000000000E+00  -3.35869986133856E-11
     -1.50316593759524E-34  -3.35869986133856E-11   4.88180357293099E-18   0.00000000000000E+00   0.00000000000000E+00
      0.00000000000000E+00   0.00000000000000E+00   0.00000000000000E+00   0.00000000000000E+00   0.00000000000000E+00
      3.83951272880845E-18   0.00000000000000E+00   0.00000000000000E+00   0.00000000000000E+00   0.00000000000000E+00
     -1.07093015860129E-20   3.45645847037921E-34  -1.07093015860125E-20  -1.26793989965750E-17   2.30946666666667E-04
      2.30946659428408E-04   0.00000000000000E+00   0.00000000000000E+00   3.35869986240949E-11  -1.95329253278397E-34
      3.35869986240949E-11   3.95808269483556E-18
      6.07416000000000E-03
      0.00000000000000E+00   9.43328719994491E-12   0.00000000000000E+00   0.00000000000000E+00  -4.40715457653715E-11
     -1.35277142414796E-34  -4.40715457653715E-11   4.88178346512785E-18   0.00000000000000E+00   0.00000000000000E+00
      0.00000000000000E+00   0.00000000000000E+00   0.00000000000000E+00   0.00000000000000E+00   0.00000000000000E+00
      3.83865344346476E-18   0.00000000000000E+00   0.00000000000000E+00   0.00000000000000E+00   0.00000000000000E+00
     -6.00347549783240E-21   3.02700350030762E-34  -6.00347549783209E-21  -1.26793723800966E-17   3.03708000000000E-04
      3.03707990502227E-04   0.00000000000000E+00   0.00000000000000E+00   4.40715457713750E-11  -1.67423207615966E-34
      4.40715457713750E-11   3.95893547150398E-18
      7.67490933333333E-03
      0.00000000000000E+00   1.18900935306931E-11   0.00000000000000E+00   0.00000000000000E+00  -5.55494295396177E-11
     -1.32184661607625E-34  -5.55494295396177E-11   4.88176134692057E-18   0.00000000000000E+00   0.00000000000000E+00
      0.00000000000000E+00   0.00000000000000E+00   0.00000000000000E+00   0.00000000000000E+00   0.00000000000000E+00
      3.83770824940424E-18   0.00000000000000E+00   0.00000000000000E+00   0.00000000000000E+00   0.00000000000000E+00
      2.44075339050470E-20   3.13412050738110E-34   2.44075339050473E-20  -1.26793431464119E-17   3.83745466666667E-04
      3.83745454695293E-04   0.00000000000000E+00   0.00000000000000E+00   5.55494295152102E-11  -1.81227389130485E-34
      5.55494295152102E-11   3.95987355008708E-18
      9.43573360000000E-03
      0.00000000000000E+00   1.45782158116325E-11   0.00000000000000E+00   0.00000000000000E+00  -6.81079264498409E-11
     -1.58685862090243E-34  -6.81079264498409E-11   4.88173701734775E-18   0.00000000000000E+00   0.00000000000000E+00
      0.00000000000000E+00   0.00000000000000E+00   0.00000000000000E+00   0.00000000000000E+00   0.00000000000000E+00
      3.83666855988298E-18   0.00000000000000E+00   0.00000000000000E+00   0.00000000000000E+00   0.00000000000000E+00
      1.49547292788910E-20   3.54716976490333E-34   1.49547292788914E-20  -1.26793110430689E-17   4.71786680000000E-04
      4.71786665322127E-04   0.00000000000000E+00   0.00000000000000E+00   6.81079264348861E-11  -1.96031114400090E-34
      6.81079264348861E-11   3.96090546583815E-18
      1.13726402933333E-02
      0.00000000000000E+00   1.75176778553188E-11   0.00000000000000E+00   0.00000000000000E+00  -8.18405523199302E-11
     -1.49862049017099E-34  -8.18405523199302E-11   4.88171025536828E-18   0.00000000000000E+00   0.00000000000000E+00
      0.00000000000000E+00   0.00000000000000E+00   0.00000000000000E+00   0.00000000000000E+00   0.00000000000000E+00
      3.83552493033826E-18   0.00000000000000E+00   0.00000000000000E+00   0.00000000000000E+00   0.00000000000000E+00
      5.00298240018486E-20   3.13310247792958E-34   5.00298240018489E-20  -1.26792757942957E-17   5.68632014666667E-04
      5.68631997029250E-04   0.00000000000000E+00   0.00000000000000E+00   8.18405522699004E-11  -1.63448198775858E-34
      8.18405522699004E-11   3.96204060858916E-18
      1.35032376560000E-02
      0.00000000000000E+00   2.07298617805119E-11   0.00000000000000E+00   0.00000000000000E+00  -9.68471761828807E-11
     -1.54148500195994E-34  -9.68471761828807E-11   4.88168081785682E-18   0.00000000000000E+00   0.00000000000000E+00
      0.00000000000000E+00   0.00000000000000E+00   0.00000000000000E+00   0.00000000000000E+00   0.00000000000000E+00
      3.83426697278289E-18   0.00000000000000E+00   0.00000000000000E+00   0.00000000000000E+00   0.00000000000000E+00
      4.55865314281777E-20   3.43609482748605E-34   4.55865314281781E-20  -1.26792370990665E-17   6.75161882800000E-04
      6.75161861928441E-04   0.00000000000000E+00   0.00000000000000E+00   9.68471761372941E-11  -1.89460982552610E-34
      9.68471761372941E-11   3.96328930842672E-18
      1.58468947549333E-02
      0.00000000000000E+00   2.42375152048355E-11   0.00000000000000E+00   0.00000000000000E+00  -1.13234051918933E-10
     -1.39318663491793E-34  -1.13234051918933E-10   4.88164843739937E-18   0.00000000000000E+00   0.00000000000000E+00
      0.00000000000000E+00   0.00000000000000E+00   0.00000000000000E+00   0.00000000000000E+00   0.00000000000000E+00
      3.83288326167431E-18   0.00000000000000E+00   0.00000000000000E+00   0.00000000000000E+00   0.00000000000000E+00
     -4.75025148817574E-19   3.15035804068133E-34  -4.75025148817574E-19  -1.26791946290540E-17   7.92344737746667E-04
      7.92344713343483E-04   0.00000000000000E+00   0.00000000000000E+00   1.13234052393958E-10  -1.75717140576340E-34
      1.13234052393958E-10   3.96466292998032E-18
      1.84249175637600E-02
      0.00000000000000E+00   2.80647374127388E-11   0.00000000000000E+00   0.00000000000000E+00  -1.31113732811082E-10
     -1.41866414231094E-34  -1.31113732811082E-10   4.88161281986935E-18   0.00000000000000E+00   0.00000000000000E+00
      0.00000000000000E+00   0.00000000000000E+00   0.00000000000000E+00   0.00000000000000E+00   0.00000000000000E+00
      3.83136123041707E-18   0.00000000000000E+00   0.00000000000000E+00   0.00000000000000E+00   0.00000000000000E+00
      1.34282567816520E-19   3.05835303047269E-34   1.34282567816521E-19  -1.26791480264807E-17   9.21245878188001E-04
      9.21245849931432E-04   0.00000000000000E+00   0.00000000000000E+00   1.31113732676799E-10  -1.63968888816176E-34
      1.31113732676799E-10   3.96617397619437E-18
      2.12607426534693E-02
      0.00000000000000E+00   3.22369544578264E-11   0.00000000000000E+00   0.00000000000000E+00  -1.50604869849859E-10
     -1.67713916606002E-34  -1.50604869849859E-10   4.88157364176233E-18   0.00000000000000E+00   0.00000000000000E+00
      0.00000000000000E+00   0.00000000000000E+00   0.00000000000000E+00   0.00000000000000E+00   0.00000000000000E+00
      3.82968705755640E-18   0.00000000000000E+00   0.00000000000000E+00   0.00000000000000E+00   0.00000000000000E+00
      2.08878676590002E-19   3.36108011737376E-34   2.08878676590002E-19  -1.26790969018573E-17   1.06303713267347E-03
      1.06303710021618E-03   0.00000000000000E+00   0.00000000000000E+00   1.50604869640981E-10  -1.68394095131374E-34
      1.50604869640981E-10   3.96783620253848E-18
      2.43801502521496E-02
      0.00000000000000E+00   3.67807819490342E-11   0.00000000000000E+00   0.00000000000000E+00  -1.71831813609810E-10
     -1.32948110827270E-34  -1.71831813609810E-10   4.88153054726523E-18   0.00000000000000E+00   0.00000000000000E+00
      0.00000000000000E+00   0.00000000000000E+00   0.00000000000000E+00   0.00000000000000E+00   0.00000000000000E+00
      3.82784554166395E-18   0.00000000000000E+00   0.00000000000000E+00   0.00000000000000E+00   0.00000000000000E+00
      2.81123295283951E-19   3.00094035471542E-34   2.81123295283952E-19  -1.26790408316496E-17   1.21900751260748E-03
      1.21900747557531E-03   0.00000000000000E+00   0.00000000000000E+00   1.71831813328687E-10  -1.67145924644272E-34
      1.71831813328687E-10   3.96966474272031E-18
      2.78114986106979E-02
      0.00000000000000E+00   4.17239503576204E-11   0.00000000000000E+00   0.00000000000000E+00  -1.94924000281369E-10
     -1.64363250934748E-34  -1.94924000281369E-10   4.88148314503402E-18   0.00000000000000E+00   0.00000000000000E+00
      0.00000000000000E+00   0.00000000000000E+00   0.00000000000000E+00   0.00000000000000E+00   0.00000000000000E+00
      3.82581996378365E-18   0.00000000000000E+00   0.00000000000000E+00   0.00000000000000E+00   0.00000000000000E+00
      4.19874085055456E-19   3.28677124635679E-34   4.19874085055456E-19  -1.26789793558801E-17   1.39057493053490E-03
      1.39057488852577E-03   0.00000000000000E+00   0.00000000000000E+00   1.94923999861495E-10  -1.64313873700931E-34
      1.94923999861495E-10   3.97167624706248E-18
      3.15859818051010E-02
      0.00000000000000E+00   4.70950831512637E-11   0.00000000000000E+00   0.00000000000000E+00  -2.20015074002699E-10
     -1.16357849239012E-34  -2.20015074002699E-10   4.88143100465090E-18   0.00000000000000E+00   0.00000000000000E+00
      0.00000000000000E+00   0.00000000000000E+00   0.00000000000000E+00   0.00000000000000E+00   0.00000000000000E+00
      3.82359193621028E-18   0.00000000000000E+00   0.00000000000000E+00   0.00000000000000E+00   0.00000000000000E+00
      6.68772500174203E-19   2.85122576145386E-34   6.68772500174203E-19  -1.26789119756891E-17   1.57929909025505E-03
      1.57929904283810E-03   0.00000000000000E+00   0.00000000000000E+00   2.20015073333927E-10  -1.68764726906374E-34
      2.20015073333927E-10   3.97388903482797E-18
      3.57379133189445E-02
      0.00000000000000E+00   5.29234782478520E-11   0.00000000000000E+00   0.00000000000000E+00  -2.47241748920418E-10
     -1.51572338850855E-34  -2.47241748920418E-10   4.88137365272892E-18   0.00000000000000E+00   0.00000000000000E+00
      0.00000000000000E+00   0.00000000000000E+00   0.00000000000000E+00   0.00000000000000E+00   0.00000000000000E+00
      3.82114123623311E-18   0.00000000000000E+00   0.00000000000000E+00   0.00000000000000E+00   0.00000000000000E+00
     -7.00177975769195E-18   3.15575886167304E-34  -7.00177975769195E-18  -1.26788381508708E-17   1.78689566594722E-03
      1.78689561266205E-03   0.00000000000000E+00   0.00000000000000E+00   2.47241755922197E-10  -1.64003547316449E-34
      2.47241755922197E-10   3.97632326190879E-18
      4.03050379841723E-02
      0.00000000000000E+00   5.92387356569987E-11   0.00000000000000E+00   0.00000000000000E+00  -2.76742203008624E-10
     -1.32587374791785E-34  -2.76742203008624E-10   4.88131056863000E-18   0.00000000000000E+00   0.00000000000000E+00
      0.00000000000000E+00   0.00000000000000E+00   0.00000000000000E+00   0.00000000000000E+00   0.00000000000000E+00
      3.81844562340969E-18   0.00000000000000E+00   0.00000000000000E+00   0.00000000000000E+00   0.00000000000000E+00
      1.44588886163461E-18   2.92007474206343E-34   1.44588886163461E-18  -1.26787572974904E-17   2.01525189920861E-03
      2.01525183956503E-03   0.00000000000000E+00   0.00000000000000E+00   2.76742201562736E-10  -1.59420099414558E-34
      2.76742201562736E-10   3.97900110545076E-18
      4.53288751159228E-02
      0.00000000000000E+00   6.60703668632697E-11   0.00000000000000E+00   0.00000000000000E+00  -3.08654111996581E-10
     -1.13329258903309E-34  -3.08654111996581E-10   4.88124117975700E-18   0.00000000000000E+00   0.00000000000000E+00
      0.00000000000000E+00   0.00000000000000E+00   0.00000000000000E+00   0.00000000000000E+00   0.00000000000000E+00
      3.81548063869510E-18   0.00000000000000E+00   0.00000000000000E+00   0.00000000000000E+00   0.00000000000000E+00
      2.11426404889555E-17   2.70739523903077E-34   2.11426404889555E-17  -1.26786687855796E-17   2.26644375579614E-03
      2.26644368927424E-03   0.00000000000000E+00   0.00000000000000E+00   3.08654090853941E-10  -1.57410264999768E-34
      3.08654090853941E-10   3.98194696712756E-18
      5.08550959608485E-02
      0.00000000000000E+00   7.34472127739927E-11   0.00000000000000E+00   0.00000000000000E+00  -3.43111951613396E-10
     -1.46654373433766E-34  -3.43111951613396E-10   4.88116485637916E-18   0.00000000000000E+00   0.00000000000000E+00
      0.00000000000000E+00   0.00000000000000E+00   0.00000000000000E+00   0.00000000000000E+00   0.00000000000000E+00
      3.81221938368999E-18   0.00000000000000E+00   0.00000000000000E+00   0.00000000000000E+00   0.00000000000000E+00
      3.06237030026037E-18   3.14617715345357E-34   3.06237030026037E-18  -1.26785719370473E-17   2.54275479804242E-03
      2.54275472409327E-03   0.00000000000000E+00   0.00000000000000E+00   3.43111948551025E-10  -1.67963341911590E-34
      3.43111948551025E-10   3.98518769697814E-18
      5.69339388902666E-02
      0.00000000000000E+00   8.13968389825241E-11   0.00000000000000E+00   0.00000000000000E+00  -3.80244333729235E-10
     -1.39240626359496E-34  -3.80244333729235E-10   4.88108090594246E-18   0.00000000000000E+00   0.00000000000000E+00
      0.00000000000000E+00   0.00000000000000E+00   0.00000000000000E+00   0.00000000000000E+00   0.00000000000000E+00
      3.80863227792293E-18   0.00000000000000E+00   0.00000000000000E+00   0.00000000000000E+00   0.00000000000000E+00
      4.49622414675981E-18   3.09998421592788E-34   4.49622414675981E-18  -1.26784660237398E-17   2.84669694451333E-03
      2.84669686256022E-03   0.00000000000000E+00   0.00000000000000E+00   3.80244329233011E-10  -1.70757795233292E-34
      3.80244329233011E-10   3.98875283987436E-18
      6.36206661126266E-02
      0.00000000000000E+00   8.99447030795169E-11   0.00000000000000E+00   0.00000000000000E+00  -4.20169864417952E-10
     -1.31550089395261E-34  -4.20169864417952E-10   4.88098856681784E-18   0.00000000000000E+00   0.00000000000000E+00
      0.00000000000000E+00   0.00000000000000E+00   0.00000000000000E+00   0.00000000000000E+00   0.00000000000000E+00
      3.80468679224619E-18   0.00000000000000E+00   0.00000000000000E+00   0.00000000000000E+00   0.00000000000000E+00
      9.21326298557839E-18   2.96113890654261E-34   9.21326298557839E-18  -1.26783502660644E-17   3.18103330563133E-03
      3.18103321507195E-03   0.00000000000000E+00   0.00000000000000E+00   4.20169855204689E-10  -1.64563801259000E-34
      4.20169855204689E-10   3.99267490700040E-18
      7.09760660572226E-02
      0.00000000000000E+00   9.91132035619371E-11   0.00000000000000E+00   0.00000000000000E+00  -4.62992849514687E-10
     -1.27489226195292E-34  -4.62992849514687E-10   4.88088700142773E-18   0.00000000000000E+00   0.00000000000000E+00
      0.00000000000000E+00   0.00000000000000E+00   0.00000000000000E+00   0.00000000000000E+00   0.00000000000000E+00
      3.80034715576114E-18   0.00000000000000E+00   0.00000000000000E+00   0.00000000000000E+00   0.00000000000000E+00
      1.65923009998931E-17   2.66853336227793E-34   1.65923009998931E-17  -1.26782238320154E-17   3.54880330286113E-03
      3.54880320307059E-03   0.00000000000000E+00   0.00000000000000E+00   4.62992832922386E-10  -1.39364110032502E-34
      4.62992832922386E-10   3.99698967482651E-18
      7.90670059962782E-02
      0.00000000000000E+00   1.08920555564956E-10   0.00000000000000E+00   0.00000000000000E+00  -5.08798007329972E-10
     -1.46669268497827E-34  -5.08798007329972E-10   4.88077528869292E-18   0.00000000000000E+00   0.00000000000000E+00
      0.00000000000000E+00   0.00000000000000E+00   0.00000000000000E+00   0.00000000000000E+00   0.00000000000000E+00
      3.79557403381710E-18   0.00000000000000E+00   0.00000000000000E+00   0.00000000000000E+00   0.00000000000000E+00
      1.39114553108005E-17   3.18055743706061E-34   1.39114553108005E-17  -1.26780858369717E-17   3.95335029981391E-03
      3.95335019014898E-03   0.00000000000000E+00   0.00000000000000E+00   5.08797993418516E-10  -1.71386475208234E-34
      5.08797993418516E-10   4.00173651446175E-18
      8.79670399292394E-02
      0.00000000000000E+00   1.19379489543743E-10   0.00000000000000E+00   0.00000000000000E+00  -5.57644440671472E-10
     -1.31085943208369E-34  -5.57644440671472E-10   4.88065241573101E-18   0.00000000000000E+00   0.00000000000000E+00
      0.00000000000000E+00   0.00000000000000E+00   0.00000000000000E+00   0.00000000000000E+00   0.00000000000000E+00
      3.79032417421101E-18   0.00000000000000E+00   0.00000000000000E+00   0.00000000000000E+00   0.00000000000000E+00
      2.02086046589076E-17   2.64725800678436E-34   2.02086046589076E-17  -1.26779353444229E-17   4.39835199646197E-03
      4.39835187626658E-03   0.00000000000000E+00   0.00000000000000E+00   5.57644420462868E-10  -1.33639857470066E-34
      5.57644420462868E-10   4.00695875448090E-18
      9.77570772554967E-02
      0.00000000000000E+00   1.30495837639113E-10   0.00000000000000E+00   0.00000000000000E+00  -6.09558832347927E-10
     -1.49724952995509E-34  -6.09558832347927E-10   4.88051726873306E-18   0.00000000000000E+00   0.00000000000000E+00
      0.00000000000000E+00   0.00000000000000E+00   0.00000000000000E+00   0.00000000000000E+00   0.00000000000000E+00
      3.78455001841297E-18   0.00000000000000E+00   0.00000000000000E+00   0.00000000000000E+00   0.00000000000000E+00
      5.28960087633946E-17   3.12403244463507E-34   5.28960087633946E-17  -1.26777713677948E-17   4.88785386277484E-03
      4.88785373138709E-03   0.00000000000000E+00   0.00000000000000E+00   6.09558779451919E-10  -1.62678291467997E-34
      6.09558779451919E-10   4.01270408064876E-18
      1.07757077255497E-01
      0.00000000000000E+00   1.41441801021488E-10   0.00000000000000E+00   0.00000000000000E+00  -6.60675008899243E-10
     -1.39304184022209E-34  -6.60675008899243E-10   4.88037923751341E-18   0.00000000000000E+00   0.00000000000000E+00
      0.00000000000000E+00   0.00000000000000E+00   0.00000000000000E+00   0.00000000000000E+00   0.00000000000000E+00
      3.77865276660872E-18   0.00000000000000E+00   0.00000000000000E+00   0.00000000000000E+00   0.00000000000000E+00
      3.45912471844490E-18   2.93212786604432E-34   3.45912471844490E-18  -1.26776055554744E-17   5.38785386277483E-03
      5.38785372036626E-03   0.00000000000000E+00   0.00000000000000E+00   6.60675005440119E-10  -1.53908602582224E-34
      6.60675005440119E-10   4.01857355135222E-18
      1.17757077255497E-01
      0.00000000000000E+00   1.51986563353914E-10   0.00000000000000E+00   0.00000000000000E+00  -7.09915313109035E-10
     -1.64966607591241E-34  -7.09915313109035E-10   4.88024122053070E-18   0.00000000000000E+00   0.00000000000000E+00
      0.00000000000000E+00   0.00000000000000E+00   0.00000000000000E+00   0.00000000000000E+00   0.00000000000000E+00
      3.77275625599019E-18   0.00000000000000E+00   0.00000000000000E+00   0.00000000000000E+00   0.00000000000000E+00
      3.06205088734384E-17   3.18070803051568E-34   3.06205088734384E-17  -1.26774414297699E-17   5.88785386277483E-03
      5.88785370974935E-03   0.00000000000000E+00   0.00000000000000E+00   7.09915282488527E-10  -1.53104195460327E-34
      7.09915282488527E-10   4.02444395324904E-18
      1.27757077255497E-01
      0.00000000000000E+00   1.62142078837551E-10   0.00000000000000E+00   0.00000000000000E+00  -7.57335726002478E-10
     -1.47469316407184E-34  -7.57335726002478E-10   4.88010321765205E-18   0.00000000000000E+00   0.00000000000000E+00
      0.00000000000000E+00   0.00000000000000E+00   0.00000000000000E+00   0.00000000000000E+00   0.00000000000000E+00
      3.76686048010526E-18   0.00000000000000E+00   0.00000000000000E+00   0.00000000000000E+00   0.00000000000000E+00
      3.96714695713788E-17   2.95871323371448E-34   3.96714695713788E-17  -1.26772789784300E-17   6.38785386277483E-03
      6.38785369952432E-03   0.00000000000000E+00   0.00000000000000E+00   7.57335686331010E-10  -1.48402006964265E-34
      7.57335686331010E-10   4.03031528067273E-18
      1.37757077255497E-01
      0.00000000000000E+00   1.71920175525361E-10   0.00000000000000E+00   0.00000000000000E+00  -8.02991637353637E-10
     -1.30782062055820E-34  -8.02991637353637E-10   4.87996522874452E-18   0.00000000000000E+00   0.00000000000000E+00
      0.00000000000000E+00   0.00000000000000E+00   0.00000000000000E+00   0.00000000000000E+00   0.00000000000000E+00
      3.76096543256760E-18   0.00000000000000E+00   0.00000000000000E+00   0.00000000000000E+00   0.00000000000000E+00
      3.25769371419048E-17   2.75608380183274E-34   3.25769371419048E-17  -1.26771181893112E-17   6.88785386277483E-03
      6.88785368967928E-03   0.00000000000000E+00   0.00000000000000E+00   8.02991604776699E-10  -1.44826318127454E-34
      8.02991604776699E-10   4.03618752799908E-18
      1.47757077255497E-01
      0.00000000000000E+00   1.81332523785067E-10   0.00000000000000E+00   0.00000000000000E+00  -8.46937733557165E-10
     -1.49427444223467E-34  -8.46937733557165E-10   4.87982725367479E-18   0.00000000000000E+00   0.00000000000000E+00
      0.00000000000000E+00   0.00000000000000E+00   0.00000000000000E+00   0.00000000000000E+00   0.00000000000000E+00
      3.75507110705029E-18   0.00000000000000E+00   0.00000000000000E+00   0.00000000000000E+00   0.00000000000000E+00
      3.20172289397225E-17   2.88613716155443E-34   3.20172289397225E-17  -1.26769590503719E-17   7.38785386277483E-03
      7.38785368020248E-03   0.00000000000000E+00   0.00000000000000E+00   8.46937701539936E-10  -1.39186271931976E-34
      8.46937701539936E-10   4.04206068964684E-18
      1.57757077255497E-01
      0.00000000000000E+00   1.90390603655539E-10   0.00000000000000E+00   0.00000000000000E+00  -8.89227852848595E-10
     -1.15236800821036E-34  -8.89227852848595E-10   4.87968929230877E-18   0.00000000000000E+00   0.00000000000000E+00
      0.00000000000000E+00   0.00000000000000E+00   0.00000000000000E+00   0.00000000000000E+00   0.00000000000000E+00
      3.74917749724940E-18   0.00000000000000E+00   0.00000000000000E+00   0.00000000000000E+00   0.00000000000000E+00
      3.14448156392946E-17   2.62708264961778E-34   3.14448156392946E-17  -1.26768015496119E-17   7.88785386277484E-03
      7.88785367108233E-03   0.00000000000000E+00   0.00000000000000E+00   8.89227821403778E-10  -1.47471464140742E-34
      8.89227821403778E-10   4.04793476005368E-18
      1.67757077255497E-01
      0.00000000000000E+00   1.99105698760695E-10   0.00000000000000E+00   0.00000000000000E+00  -9.29914832625427E-10
     -1.40785894661950E-34  -9.29914832625427E-10   4.87955134451281E-18   0.00000000000000E+00   0.00000000000000E+00
      0.00000000000000E+00   0.00000000000000E+00   0.00000000000000E+00   0.00000000000000E+00   0.00000000000000E+00
      3.74328459693498E-18   0.00000000000000E+00   0.00000000000000E+00   0.00000000000000E+00   0.00000000000000E+00
      3.08959144893394E-17   2.76443442005222E-34   3.08959144893394E-17  -1.26766456751500E-17   8.38785386277484E-03
      8.38785366230751E-03   0.00000000000000E+00   0.00000000000000E+00   9.29914801729512E-10  -1.35657547343272E-34
      9.29914801729512E-10   4.05380973370221E-18
      1.77757077255497E-01
      0.00000000000000E+00   2.07488869198710E-10   0.00000000000000E+00   0.00000000000000E+00  -9.69050474239680E-10
     -1.37942967295703E-34  -9.69050474239680E-10   4.87941341015322E-18   0.00000000000000E+00   0.00000000000000E+00
      0.00000000000000E+00   0.00000000000000E+00   0.00000000000000E+00   0.00000000000000E+00   0.00000000000000E+00
      3.73739239993348E-18   0.00000000000000E+00   0.00000000000000E+00   0.00000000000000E+00   0.00000000000000E+00
      3.03815141296748E-17   2.62024019492400E-34   3.03815141296748E-17  -1.26764914152037E-17   8.88785386277484E-03
      8.88785365386685E-03   0.00000000000000E+00   0.00000000000000E+00   9.69050443858166E-10  -1.24081052196697E-34
      9.69050443858166E-10   4.05968560511704E-18
      1.87757077255497E-01
      0.00000000000000E+00   2.15550936050127E-10   0.00000000000000E+00   0.00000000000000E+00  -1.00668548796569E-09
     -1.42944421742709E-34  -1.00668548796569E-09   4.87927548909633E-18   0.00000000000000E+00   0.00000000000000E+00
      0.00000000000000E+00   0.00000000000000E+00   0.00000000000000E+00   0.00000000000000E+00   0.00000000000000E+00
      3.73150090010838E-18   0.00000000000000E+00   0.00000000000000E+00   0.00000000000000E+00   0.00000000000000E+00
      3.05092004333935E-17   2.67411358397179E-34   3.05092004333935E-17  -1.26763387580510E-17   9.38785386277484E-03
      9.38785364574948E-03   0.00000000000000E+00   0.00000000000000E+00   1.00668545745649E-09  -1.24466936654470E-34
      1.00668545745649E-09   4.06556236884630E-18
      1.97757077255497E-01
      0.00000000000000E+00   2.23302481377861E-10   0.00000000000000E+00   0.00000000000000E+00  -1.04286941715142E-09