DF-ISE text

Info {
  version   = 1.0
  type      = xyplot
  datasets  = [
    "time"
    "source OuterVoltage" "source InnerVoltage" "source QuasiFermiPotential" "source DisplacementCurrent" "source eCurrent"
    "source hCurrent" "source TotalCurrent" "source Charge" "gate OuterVoltage" "gate InnerVoltage"
    "gate QuasiFermiPotential" "gate DisplacementCurrent" "gate eCurrent" "gate hCurrent" "gate TotalCurrent"
    "gate Charge" "substrate OuterVoltage" "substrate InnerVoltage" "substrate QuasiFermiPotential" "substrate DisplacementCurrent"
    "substrate eCurrent" "substrate hCurrent" "substrate TotalCurrent" "substrate Charge" "drain OuterVoltage"
    "drain InnerVoltage" "drain QuasiFermiPotential" "drain DisplacementCurrent" "drain eCurrent" "drain hCurrent"
    "drain TotalCurrent" "drain Charge" ]
  functions = [
    Time
    OuterVoltage InnerVoltage QuasiFermiPotential DisplacementCurrent eCurrent
    hCurrent TotalCurrent Charge OuterVoltage InnerVoltage
    QuasiFermiPotential DisplacementCurrent eCurrent hCurrent TotalCurrent
    Charge OuterVoltage InnerVoltage QuasiFermiPotential DisplacementCurrent
    eCurrent hCurrent TotalCurrent Charge OuterVoltage
    InnerVoltage QuasiFermiPotential DisplacementCurrent eCurrent hCurrent
    TotalCurrent Charge ]
}

Data {
      0.00000000000000E+00
      0.00000000000000E+00   0.00000000000000E+00   0.00000000000000E+00   0.00000000000000E+00   1.02965253189925E-21
     -6.59169802897130E-35   1.02965253189918E-21   4.11494839059818E-18   0.00000000000000E+00   0.00000000000000E+00
      0.00000000000000E+00   0.00000000000000E+00   0.00000000000000E+00   0.00000000000000E+00   0.00000000000000E+00
      2.04492745815615E-18   0.00000000000000E+00   0.00000000000000E+00   0.00000000000000E+00   0.00000000000000E+00
     -1.83557267632663E-20   2.00264282493314E-34  -1.83557267632661E-20  -9.98392056046117E-18   0.00000000000000E+00
      0.00000000000000E+00   0.00000000000000E+00   0.00000000000000E+00   1.73260742313670E-20  -1.34347302203601E-34
      1.73260742313669E-20   3.82404471170680E-18
      0.00000000000000E+00
      0.00000000000000E+00   0.00000000000000E+00   0.00000000000000E+00   0.00000000000000E+00   3.01744456009047E-20
     -6.89368904260732E-35   3.01744456009046E-20   4.11333940173752E-18   0.00000000000000E+00   0.00000000000000E+00
      0.00000000000000E+00   0.00000000000000E+00   0.00000000000000E+00   0.00000000000000E+00   0.00000000000000E+00
      2.04025848822115E-18   0.00000000000000E+00   0.00000000000000E+00   0.00000000000000E+00   0.00000000000000E+00
      1.00166158720481E-19   2.12906972888453E-34   1.00166158720481E-19  -9.97631108317737E-18   0.00000000000000E+00
      0.00000000000000E+00   0.00000000000000E+00   0.00000000000000E+00  -1.30340604321385E-19  -1.43970082462380E-34
     -1.30340604321385E-19   3.82271319321871E-18
      1.00000000000000E-03
      0.00000000000000E+00   2.08436165485421E-12   0.00000000000000E+00   0.00000000000000E+00  -8.41646386703413E-12
     -7.65621147617805E-35  -8.41646386703413E-12   4.11331673511751E-18   0.00000000000000E+00   0.00000000000000E+00
      0.00000000000000E+00   0.00000000000000E+00   0.00000000000000E+00   0.00000000000000E+00   0.00000000000000E+00
      2.03972618755720E-18   0.00000000000000E+00   0.00000000000000E+00   0.00000000000000E+00   0.00000000000000E+00
     -3.29523317235793E-20   2.29229661870575E-34  -3.29523317235790E-20  -9.97628591000251E-18   5.00000000000000E-05
      4.99999979277513E-05   0.00000000000000E+00   0.00000000000000E+00   8.41646389998646E-12  -1.52667547108795E-34
      8.41646389998646E-12   3.82324298732777E-18
      2.09333333333333E-03
      0.00000000000000E+00   4.35603304447046E-12   0.00000000000000E+00   0.00000000000000E+00  -1.75892586254252E-11
     -6.90252990565998E-35  -1.75892586254252E-11   4.11329195320944E-18   0.00000000000000E+00   0.00000000000000E+00
      0.00000000000000E+00   0.00000000000000E+00   0.00000000000000E+00   0.00000000000000E+00   0.00000000000000E+00
      2.03914421219336E-18   0.00000000000000E+00   0.00000000000000E+00   0.00000000000000E+00   0.00000000000000E+00
     -2.35604084174297E-19   2.19881113826019E-34  -2.35604084174297E-19  -9.97625840552526E-18   1.04666666666667E-04
      1.04666662335958E-04   0.00000000000000E+00   0.00000000000000E+00   1.75892588610293E-11  -1.50855814769419E-34
      1.75892588610293E-11   3.82382224012244E-18
      3.29600000000000E-03
      0.00000000000000E+00   6.84577652116681E-12   0.00000000000000E+00   0.00000000000000E+00  -2.76426121538834E-11
     -8.25359103578208E-35  -2.76426121538834E-11   4.11326469342934E-18   0.00000000000000E+00   0.00000000000000E+00
      0.00000000000000E+00   0.00000000000000E+00   0.00000000000000E+00   0.00000000000000E+00   0.00000000000000E+00
      2.03850404736475E-18   0.00000000000000E+00   0.00000000000000E+00   0.00000000000000E+00   0.00000000000000E+00
      3.64377747767660E-20   2.33147382807931E-34   3.64377747767662E-20  -9.97622817253716E-18   1.64800000000000E-04
      1.64799993194023E-04   0.00000000000000E+00   0.00000000000000E+00   2.76426121174457E-11  -1.50611472450111E-34
      2.76426121174457E-11   3.82445943174306E-18
      4.61893333333333E-03
      0.00000000000000E+00   9.57323615287742E-12   0.00000000000000E+00   0.00000000000000E+00  -3.86558511579364E-11
     -7.88351406341003E-35  -3.86558511579364E-11   4.11323470805765E-18   0.00000000000000E+00   0.00000000000000E+00
      0.00000000000000E+00   0.00000000000000E+00   0.00000000000000E+00   0.00000000000000E+00   0.00000000000000E+00
      2.03779987581127E-18   0.00000000000000E+00   0.00000000000000E+00   0.00000000000000E+00   0.00000000000000E+00
     -5.74541164655749E-20   2.14999457001632E-34  -5.74541164655747E-20  -9.97619494277521E-18   2.30946666666667E-04
      2.30946657149083E-04   0.00000000000000E+00   0.00000000000000E+00   3.86558512153906E-11  -1.36164316367532E-34
      3.86558512153906E-11   3.82516035890629E-18
      6.07416000000000E-03
      0.00000000000000E+00   1.25596303277558E-11   0.00000000000000E+00   0.00000000000000E+00  -5.07145548154263E-11
     -8.86709670928480E-35  -5.07145548154263E-11   4.11320172461698E-18   0.00000000000000E+00   0.00000000000000E+00
      0.00000000000000E+00   0.00000000000000E+00   0.00000000000000E+00   0.00000000000000E+00   0.00000000000000E+00
      2.03702529889807E-18   0.00000000000000E+00   0.00000000000000E+00   0.00000000000000E+00   0.00000000000000E+00
     -4.28446247739841E-20   2.23599977435870E-34  -4.28446247739838E-20  -9.97615842210761E-18   3.03708000000000E-04
      3.03707987513407E-04   0.00000000000000E+00   0.00000000000000E+00   5.07145548582709E-11  -1.34929010343022E-34
      5.07145548582709E-11   3.82593139859259E-18
      7.67490933333333E-03
      0.00000000000000E+00   1.58277320329122E-11   0.00000000000000E+00   0.00000000000000E+00  -6.39107546869035E-11
     -7.08647117387055E-35  -6.39107546869035E-11   4.11316544339918E-18   0.00000000000000E+00   0.00000000000000E+00
      0.00000000000000E+00   0.00000000000000E+00   0.00000000000000E+00   0.00000000000000E+00   0.00000000000000E+00
      2.03617327855090E-18   0.00000000000000E+00   0.00000000000000E+00   0.00000000000000E+00   0.00000000000000E+00
      1.20923435007005E-20   1.97735308946359E-34   1.20923435007007E-20  -9.97611828814613E-18   3.83745466666667E-04
      3.83745450930987E-04   0.00000000000000E+00   0.00000000000000E+00   6.39107546748111E-11  -1.26870597207653E-34
      6.39107546748111E-11   3.82677956619604E-18
      9.43573360000000E-03
      0.00000000000000E+00   1.94019894358480E-11   0.00000000000000E+00   0.00000000000000E+00  -7.83431102957365E-11
     -8.26985895788712E-35  -7.83431102957365E-11   4.11312553474586E-18   0.00000000000000E+00   0.00000000000000E+00
      0.00000000000000E+00   0.00000000000000E+00   0.00000000000000E+00   0.00000000000000E+00   0.00000000000000E+00
      2.03523607340080E-18   0.00000000000000E+00   0.00000000000000E+00   0.00000000000000E+00   0.00000000000000E+00
      3.78889740193153E-20   2.35133493558010E-34   3.78889740193156E-20  -9.97607418766132E-18   4.71786680000000E-04
      4.71786660710862E-04   0.00000000000000E+00   0.00000000000000E+00   7.83431102578475E-11  -1.52434903979138E-34
      7.83431102578475E-11   3.82771257951471E-18
      1.13726402933333E-02
      0.00000000000000E+00   2.33084982746875E-11   0.00000000000000E+00   0.00000000000000E+00  -9.41170383087685E-11
     -7.60871883564305E-35  -9.41170383087685E-11   4.11308163605767E-18   0.00000000000000E+00   0.00000000000000E+00
      0.00000000000000E+00   0.00000000000000E+00   0.00000000000000E+00   0.00000000000000E+00   0.00000000000000E+00
      2.03420516855940E-18   0.00000000000000E+00   0.00000000000000E+00   0.00000000000000E+00   0.00000000000000E+00
      7.15101690752290E-20   2.41055662677417E-34   7.15101690752293E-20  -9.97602573378759E-18   5.68632014666667E-04
      5.68631991493768E-04   0.00000000000000E+00   0.00000000000000E+00   9.41170382372583E-11  -1.64968474320986E-34
      9.41170382372583E-11   3.82873892917050E-18
      1.35032376560000E-02
      0.00000000000000E+00   2.75750767989764E-11   0.00000000000000E+00   0.00000000000000E+00  -1.11344753407309E-10
     -6.54109424694779E-35  -1.11344753407309E-10   4.11303334850531E-18   0.00000000000000E+00   0.00000000000000E+00
      0.00000000000000E+00   0.00000000000000E+00   0.00000000000000E+00   0.00000000000000E+00   0.00000000000000E+00
      2.03307119839403E-18   0.00000000000000E+00   0.00000000000000E+00   0.00000000000000E+00   0.00000000000000E+00
      2.37381041286944E-19   2.18997578785077E-34   2.37381041286945E-19  -9.97597250300737E-18   6.75161882800000E-04
      6.75161855385373E-04   0.00000000000000E+00   0.00000000000000E+00   1.11344753169928E-10  -1.53586636315600E-34
      1.11344753169928E-10   3.82986795610801E-18
      1.58468947549333E-02
      0.00000000000000E+00   3.22311784326614E-11   0.00000000000000E+00   0.00000000000000E+00  -1.30145193071102E-10
     -1.00816939351058E-34  -1.30145193071102E-10   4.11298023341285E-18   0.00000000000000E+00   0.00000000000000E+00
      0.00000000000000E+00   0.00000000000000E+00   0.00000000000000E+00   0.00000000000000E+00   0.00000000000000E+00
      2.03182386160769E-18   0.00000000000000E+00   0.00000000000000E+00   0.00000000000000E+00   0.00000000000000E+00
      3.60295959162359E-20   2.47731394601956E-34   3.60295959162361E-20  -9.97591403190951E-18   7.92344737746667E-04
      7.92344705703073E-04   0.00000000000000E+00   0.00000000000000E+00   1.30145193035072E-10  -1.46914455250898E-34
      1.30145193035072E-10   3.83110993688895E-18
      1.84249175637600E-02
      0.00000000000000E+00   3.73078619104641E-11   0.00000000000000E+00   0.00000000000000E+00  -1.50643799726031E-10
     -9.12413730057211E-35  -1.50643799726031E-10   4.11292180828046E-18   0.00000000000000E+00   0.00000000000000E+00
      0.00000000000000E+00   0.00000000000000E+00   0.00000000000000E+00   0.00000000000000E+00   0.00000000000000E+00
      2.03045182785784E-18   0.00000000000000E+00   0.00000000000000E+00   0.00000000000000E+00   0.00000000000000E+00
      1.82502088037518E-19   2.08006300271273E-34   1.82502088037518E-19  -9.97584981370775E-18   9.21245878188001E-04
      9.21245841097301E-04   0.00000000000000E+00   0.00000000000000E+00   1.50643799543529E-10  -1.16764927265552E-34
      1.50643799543529E-10   3.83247617756942E-18
      2.12607426534693E-02
      0.00000000000000E+00   4.28377411295274E-11   0.00000000000000E+00   0.00000000000000E+00  -1.72972123599858E-10
     -7.69957556018902E-35  -1.72972123599858E-10   4.11285754241102E-18   0.00000000000000E+00   0.00000000000000E+00
      0.00000000000000E+00   0.00000000000000E+00   0.00000000000000E+00   0.00000000000000E+00   0.00000000000000E+00
      2.02894263507403E-18   0.00000000000000E+00   0.00000000000000E+00   0.00000000000000E+00   0.00000000000000E+00
      3.99154629029678E-19   2.14460942733612E-34   3.99154629029678E-19  -9.97577929451478E-18   1.06303713267347E-03
      1.06303709008514E-03   0.00000000000000E+00   0.00000000000000E+00   1.72972123200704E-10  -1.37465187131722E-34
      1.72972123200704E-10   3.83397911702972E-18
      2.43801502521496E-02
      0.00000000000000E+00   4.88547546923759E-11   0.00000000000000E+00   0.00000000000000E+00  -1.97267200516633E-10
     -8.84798807508722E-35  -1.97267200516633E-10   4.11278685210135E-18   0.00000000000000E+00   0.00000000000000E+00
      0.00000000000000E+00   0.00000000000000E+00   0.00000000000000E+00   0.00000000000000E+00   0.00000000000000E+00
      2.02728257655261E-18   0.00000000000000E+00   0.00000000000000E+00   0.00000000000000E+00   0.00000000000000E+00
      8.07209964687882E-19   2.26675598511271E-34   8.07209964687882E-19  -9.97570186936920E-18   1.21900751260748E-03
      1.21900746403724E-03   0.00000000000000E+00   0.00000000000000E+00   1.97267199709423E-10  -1.38195717760399E-34
      1.97267199709423E-10   3.83563244071522E-18
      2.78114986106979E-02
      0.00000000000000E+00   5.53939889790166E-11   0.00000000000000E+00   0.00000000000000E+00  -2.23670645381675E-10
     -8.95197431956912E-35  -2.23670645381675E-10   4.11270909535454E-18   0.00000000000000E+00   0.00000000000000E+00
      0.00000000000000E+00   0.00000000000000E+00   0.00000000000000E+00   0.00000000000000E+00   0.00000000000000E+00
      2.02545657681796E-18   0.00000000000000E+00   0.00000000000000E+00   0.00000000000000E+00   0.00000000000000E+00
      1.22530685268607E-18   2.37329254296675E-34   1.22530685268607E-18  -9.97561687801935E-18   1.39057493053490E-03
      1.39057487546358E-03   0.00000000000000E+00   0.00000000000000E+00   2.23670644156368E-10  -1.47809511100984E-34
      2.23670644156368E-10   3.83745120584686E-18
      3.15859818051010E-02
      0.00000000000000E+00   6.24913783837483E-11   0.00000000000000E+00   0.00000000000000E+00  -2.52327456357568E-10
     -9.75415254104551E-35  -2.52327456357568E-10   4.11262356606602E-18   0.00000000000000E+00   0.00000000000000E+00
      0.00000000000000E+00   0.00000000000000E+00   0.00000000000000E+00   0.00000000000000E+00   0.00000000000000E+00
      2.02344805512364E-18   0.00000000000000E+00   0.00000000000000E+00   0.00000000000000E+00   0.00000000000000E+00
      1.78029354186637E-18   2.23446541385816E-34   1.78029354186637E-18  -9.97552360045016E-18   1.57929909025505E-03
      1.57929902812780E-03   0.00000000000000E+00   0.00000000000000E+00   2.52327454577274E-10  -1.25905015975361E-34
      2.52327454577274E-10   3.83945197926049E-18
      3.57379133189445E-02
      0.00000000000000E+00   7.01832860974647E-11   0.00000000000000E+00   0.00000000000000E+00  -2.83384374502742E-10
     -7.93304954715266E-35  -2.83384374502742E-10   4.11252948763180E-18   0.00000000000000E+00   0.00000000000000E+00
      0.00000000000000E+00   0.00000000000000E+00   0.00000000000000E+00   0.00000000000000E+00   0.00000000000000E+00
      2.02123877539554E-18   0.00000000000000E+00   0.00000000000000E+00   0.00000000000000E+00   0.00000000000000E+00
      2.79566934273383E-18   2.38228067965442E-34   2.79566934273383E-18  -9.97542125219954E-18   1.78689566594722E-03
      1.78689559617302E-03   0.00000000000000E+00   0.00000000000000E+00   2.83384371707072E-10  -1.58897572493915E-34
      2.83384371707072E-10   3.84165298917219E-18
      4.03050379841723E-02
      0.00000000000000E+00   7.85059879740395E-11   0.00000000000000E+00   0.00000000000000E+00  -3.16987836681911E-10
     -8.20051582599912E-35  -3.16987836681911E-10   4.11242600592077E-18   0.00000000000000E+00   0.00000000000000E+00
      0.00000000000000E+00   0.00000000000000E+00   0.00000000000000E+00   0.00000000000000E+00   0.00000000000000E+00
      2.01880868125356E-18   0.00000000000000E+00   0.00000000000000E+00   0.00000000000000E+00   0.00000000000000E+00
      2.50207640901318E-17   2.21359524567057E-34   2.50207640901318E-17  -9.97530897945380E-18   2.01525189920861E-03
      2.01525182116036E-03   0.00000000000000E+00   0.00000000000000E+00   3.16987811661147E-10  -1.39354366307066E-34
      3.16987811661147E-10   3.84407429227946E-18
      4.53288751159228E-02
      0.00000000000000E+00   8.74950673692973E-11   0.00000000000000E+00   0.00000000000000E+00  -3.53281254904707E-10
     -9.39809994652223E-35  -3.53281254904707E-10   4.11231218154921E-18   0.00000000000000E+00   0.00000000000000E+00
      0.00000000000000E+00   0.00000000000000E+00   0.00000000000000E+00   0.00000000000000E+00   0.00000000000000E+00
      2.01613571464929E-18   0.00000000000000E+00   0.00000000000000E+00   0.00000000000000E+00   0.00000000000000E+00
      5.61884155641694E-18   2.22060594823710E-34   5.61884155641694E-18  -9.97518585396714E-18   2.26644375579614E-03
      2.26644366881141E-03   0.00000000000000E+00   0.00000000000000E+00   3.53281249285865E-10  -1.28079595358487E-34
      3.53281249285865E-10   3.84673795776866E-18
      5.08550959608485E-02
      0.00000000000000E+00   9.71845575478229E-11   0.00000000000000E+00   0.00000000000000E+00  -3.92402039693023E-10
     -7.98056950879609E-35  -3.92402039693023E-10   4.11218698138733E-18   0.00000000000000E+00   0.00000000000000E+00
      0.00000000000000E+00   0.00000000000000E+00   0.00000000000000E+00   0.00000000000000E+00   0.00000000000000E+00
      2.01319561649435E-18   0.00000000000000E+00   0.00000000000000E+00   0.00000000000000E+00   0.00000000000000E+00
      1.59215573941775E-17   1.95359023575772E-34   1.59215573941775E-17  -9.97505086783840E-18   2.54275479804242E-03
      2.54275470142493E-03   0.00000000000000E+00   0.00000000000000E+00   3.92402023771466E-10  -1.15553328487811E-34
      3.92402023771466E-10   3.84966826995671E-18
      5.69339388902666E-02
      0.00000000000000E+00   1.07606040702994E-10   0.00000000000000E+00   0.00000000000000E+00  -4.34477490277615E-10
     -7.46511646505384E-35  -4.34477490277615E-10   4.11204926922320E-18   0.00000000000000E+00   0.00000000000000E+00
      0.00000000000000E+00   0.00000000000000E+00   0.00000000000000E+00   0.00000000000000E+00   0.00000000000000E+00
      2.00996170750471E-18   0.00000000000000E+00   0.00000000000000E+00   0.00000000000000E+00   0.00000000000000E+00
      3.71329843980086E-17   2.05595120995899E-34   3.71329843980086E-17  -9.97490292819979E-18   2.84669694451333E-03
      2.84669683753543E-03   0.00000000000000E+00   0.00000000000000E+00   4.34477453144630E-10  -1.30943956345360E-34
      4.34477453144630E-10   3.85289195147190E-18
      6.36206661126266E-02
      0.00000000000000E+00   1.18787486656344E-10   0.00000000000000E+00   0.00000000000000E+00  -4.79620261269987E-10
     -8.10492175564707E-35  -4.79620261269987E-10   4.11189779549940E-18   0.00000000000000E+00   0.00000000000000E+00
      0.00000000000000E+00   0.00000000000000E+00   0.00000000000000E+00   0.00000000000000E+00   0.00000000000000E+00
      2.00640464731116E-18   0.00000000000000E+00   0.00000000000000E+00   0.00000000000000E+00   0.00000000000000E+00
      1.79049289885914E-17   2.17176923108855E-34   1.79049289885914E-17  -9.97474085189942E-18   3.18103330563133E-03
      3.18103318753756E-03   0.00000000000000E+00   0.00000000000000E+00   4.79620243365058E-10  -1.36127705552385E-34
      4.79620243365058E-10   3.85643840908883E-18
      7.09760660572226E-02
      0.00000000000000E+00   1.30751881384622E-10   0.00000000000000E+00   0.00000000000000E+00  -5.27923057748578E-10
     -7.31733053789081E-35  -5.27923057748578E-10   4.11173118603354E-18   0.00000000000000E+00   0.00000000000000E+00
      0.00000000000000E+00   0.00000000000000E+00   0.00000000000000E+00   0.00000000000000E+00   0.00000000000000E+00
      2.00249216971468E-18   0.00000000000000E+00   0.00000000000000E+00   0.00000000000000E+00   0.00000000000000E+00
      2.62535871145418E-17   1.86674487478043E-34   2.62535871145418E-17  -9.97456336029990E-18   3.54880330286113E-03
      3.54880317287321E-03   0.00000000000000E+00   0.00000000000000E+00   5.27923031494991E-10  -1.13501182099135E-34
      5.27923031494991E-10   3.86034000455170E-18
      7.90670059962782E-02
      0.00000000000000E+00   1.43515713553746E-10   0.00000000000000E+00   0.00000000000000E+00  -5.79452157022091E-10
     -7.11229381313048E-35  -5.79452157022091E-10   4.11154792962034E-18   0.00000000000000E+00   0.00000000000000E+00
      0.00000000000000E+00   0.00000000000000E+00   0.00000000000000E+00   0.00000000000000E+00   0.00000000000000E+00
      1.99818879172014E-18   0.00000000000000E+00   0.00000000000000E+00   0.00000000000000E+00   0.00000000000000E+00
      3.81250468615922E-17   1.98460805705417E-34   3.81250468615922E-17  -9.97436907429358E-18   3.95335029981391E-03
      3.95335015713718E-03   0.00000000000000E+00   0.00000000000000E+00   5.79452118897044E-10  -1.27337867574112E-34
      5.79452118897044E-10   3.86463235295311E-18
      8.79670399292394E-02
      0.00000000000000E+00   1.57087183828165E-10   0.00000000000000E+00   0.00000000000000E+00  -6.34240472448734E-10
     -8.42394422410760E-35  -6.34240472448734E-10   4.11134636440530E-18   0.00000000000000E+00   0.00000000000000E+00
      0.00000000000000E+00   0.00000000000000E+00   0.00000000000000E+00   0.00000000000000E+00   0.00000000000000E+00
      1.99345549376252E-18   0.00000000000000E+00   0.00000000000000E+00   0.00000000000000E+00   0.00000000000000E+00
      5.54445671390712E-17   2.05815600131834E-34   5.54445671390712E-17  -9.97415650967608E-18   4.39835199646197E-03
      4.39835184029361E-03   0.00000000000000E+00   0.00000000000000E+00   6.34240417004167E-10  -1.21576157890758E-34
      6.34240417004167E-10   3.86935465150826E-18
      9.77570772554967E-02
      0.00000000000000E+00   1.71464312756581E-10   0.00000000000000E+00   0.00000000000000E+00  -6.92279662085309E-10
     -8.31086914709114E-35  -6.92279662085309E-10   4.11112466291040E-18   0.00000000000000E+00   0.00000000000000E+00
      0.00000000000000E+00   0.00000000000000E+00   0.00000000000000E+00   0.00000000000000E+00   0.00000000000000E+00
      1.98824936832898E-18   0.00000000000000E+00   0.00000000000000E+00   0.00000000000000E+00   0.00000000000000E+00
      8.66762482631971E-17   2.01634559527145E-34   8.66762482631971E-17  -9.97392407312910E-18   4.88785386277484E-03
      4.88785369231404E-03   0.00000000000000E+00   0.00000000000000E+00   6.92279575409060E-10  -1.18525868056233E-34
      6.92279575409060E-10   3.87455004188975E-18
      1.07757077255497E-01
      0.00000000000000E+00   1.85571508875415E-10   0.00000000000000E+00   0.00000000000000E+00  -7.49227469512514E-10
     -8.09800751351928E-35  -7.49227469512514E-10   4.11089822841515E-18   0.00000000000000E+00   0.00000000000000E+00
      0.00000000000000E+00   0.00000000000000E+00   0.00000000000000E+00   0.00000000000000E+00   0.00000000000000E+00
      1.98293212892373E-18   0.00000000000000E+00   0.00000000000000E+00   0.00000000000000E+00   0.00000000000000E+00
     -3.45328417084015E-20   1.98059181865850E-34  -3.45328417084013E-20  -9.97368814106430E-18   5.38785386277483E-03
      5.38785367829013E-03   0.00000000000000E+00   0.00000000000000E+00   7.49227469547047E-10  -1.17079106730657E-34
      7.49227469547047E-10   3.87985778372541E-18
      1.17757077255497E-01
      0.00000000000000E+00   1.99113353869171E-10   0.00000000000000E+00   0.00000000000000E+00  -8.03891748830922E-10
     -8.32276143578566E-35  -8.03891748830922E-10   4.11067181572003E-18   0.00000000000000E+00   0.00000000000000E+00
      0.00000000000000E+00   0.00000000000000E+00   0.00000000000000E+00   0.00000000000000E+00   0.00000000000000E+00
      1.97761543088656E-18   0.00000000000000E+00   0.00000000000000E+00   0.00000000000000E+00   0.00000000000000E+00
      9.43717133417198E-17   1.90856322920668E-34   9.43717133417198E-17  -9.97345370592165E-18   5.88785386277483E-03
      5.88785366482821E-03   0.00000000000000E+00   0.00000000000000E+00   8.03891654459209E-10  -1.07628708562811E-34
      8.03891654459209E-10   3.88516645931505E-18
      1.27757077255497E-01
      0.00000000000000E+00   2.12108834242542E-10   0.00000000000000E+00   0.00000000000000E+00  -8.56349102588578E-10
     -7.48248242043765E-35  -8.56349102588578E-10   4.11044542465508E-18   0.00000000000000E+00   0.00000000000000E+00
      0.00000000000000E+00   0.00000000000000E+00   0.00000000000000E+00   0.00000000000000E+00   0.00000000000000E+00
      1.97229927028488E-18   0.00000000000000E+00   0.00000000000000E+00   0.00000000000000E+00   0.00000000000000E+00
      9.32814900647800E-17   1.88741303463643E-34   9.32814900647800E-17  -9.97322075930574E-18   6.38785386277483E-03
      6.38785365190959E-03   0.00000000000000E+00   0.00000000000000E+00   8.56349009307089E-10  -1.13916479259266E-34
      8.56349009307089E-10   3.89047606436580E-18
      1.37757077255497E-01
      0.00000000000000E+00   2.24576713931687E-10   0.00000000000000E+00   0.00000000000000E+00  -9.06675500966323E-10
     -8.77539687744427E-35  -9.06675500966323E-10   4.11021905504960E-18   0.00000000000000E+00   0.00000000000000E+00
      0.00000000000000E+00   0.00000000000000E+00   0.00000000000000E+00   0.00000000000000E+00   0.00000000000000E+00
      1.96698364322170E-18   0.00000000000000E+00   0.00000000000000E+00   0.00000000000000E+00   0.00000000000000E+00
      4.27113950985990E-17   1.97224236802753E-34   4.27113950985990E-17  -9.97298929288393E-18   6.88785386277483E-03
      6.88785363951555E-03   0.00000000000000E+00   0.00000000000000E+00   9.06675458254928E-10  -1.09470268028310E-34
      9.06675458254928E-10   3.89578659461262E-18
      1.47757077255497E-01
      0.00000000000000E+00   2.36535405270823E-10   0.00000000000000E+00   0.00000000000000E+00  -9.54945431727667E-10
     -9.00752622877131E-35  -9.54945431727667E-10   4.10999270673369E-18   0.00000000000000E+00   0.00000000000000E+00
      0.00000000000000E+00   0.00000000000000E+00   0.00000000000000E+00   0.00000000000000E+00   0.00000000000000E+00
      1.96166854584848E-18   0.00000000000000E+00   0.00000000000000E+00   0.00000000000000E+00   0.00000000000000E+00
      9.08345211158600E-17   1.94685405790783E-34   9.08345211158600E-17  -9.97275929840818E-18   7.38785386277483E-03
      7.38785362762775E-03   0.00000000000000E+00   0.00000000000000E+00   9.54945340893146E-10  -1.04610143503069E-34
      9.54945340893146E-10   3.90109804582601E-18
      1.57757077255497E-01
      0.00000000000000E+00   2.48002951524828E-10   0.00000000000000E+00   0.00000000000000E+00  -1.00123189427807E-09
     -5.34557568957195E-35  -1.00123189427807E-09   4.10976637953695E-18   0.00000000000000E+00   0.00000000000000E+00
      0.00000000000000E+00   0.00000000000000E+00   0.00000000000000E+00   0.00000000000000E+00   0.00000000000000E+00
      1.95635397434447E-18   0.00000000000000E+00   0.00000000000000E+00   0.00000000000000E+00   0.00000000000000E+00
      9.01870614399546E-17   1.54340836054378E-34   9.01870614399546E-17  -9.97253076768111E-18   7.88785386277484E-03
      7.88785361622827E-03   0.00000000000000E+00   0.00000000000000E+00   1.00123180409101E-09  -1.00885079158659E-34
      1.00123180409101E-09   3.90641041379967E-18
      1.67757077255497E-01
      0.00000000000000E+00   2.58996995335215E-10   0.00000000000000E+00   0.00000000000000E+00  -1.04560626881842E-09
     -1.01651364657397E-34  -1.04560626881842E-09   4.10954007328823E-18   0.00000000000000E+00   0.00000000000000E+00
      0.00000000000000E+00   0.00000000000000E+00   0.00000000000000E+00   0.00000000000000E+00   0.00000000000000E+00
      1.95103992492894E-18   0.00000000000000E+00   0.00000000000000E+00   0.00000000000000E+00   0.00000000000000E+00
      8.92112972978162E-17   2.05727597634147E-34   8.92112972978162E-17  -9.97230369257261E-18   8.38785386277484E-03
      8.38785360529957E-03   0.00000000000000E+00   0.00000000000000E+00   1.04560617960712E-09  -1.04076232976751E-34
      1.04560617960712E-09   3.91172369435544E-18
      1.77757077255497E-01
      0.00000000000000E+00   2.69534768014306E-10   0.00000000000000E+00   0.00000000000000E+00  -1.08813829698742E-09
     -8.46377280619978E-35  -1.08813829698742E-09   4.10931378781623E-18   0.00000000000000E+00   0.00000000000000E+00
      0.00000000000000E+00   0.00000000000000E+00   0.00000000000000E+00   0.00000000000000E+00   0.00000000000000E+00
      1.94572639380125E-18   0.00000000000000E+00   0.00000000000000E+00   0.00000000000000E+00   0.00000000000000E+00
      8.81779395165328E-17   1.99877927357766E-34   8.81779395165328E-17  -9.97207806493640E-18   8.88785386277484E-03
      8.88785359482448E-03   0.00000000000000E+00   0.00000000000000E+00   1.08813820880948E-09  -1.15240199295768E-34
      1.08813820880948E-09   3.91703788331893E-18
      1.87757077255497E-01
      0.00000000000000E+00   2.79633094616415E-10   0.00000000000000E+00   0.00000000000000E+00  -1.12889595805963E-09
     -7.25768980941669E-35  -1.12889595805963E-09   4.10908752294885E-18   0.00000000000000E+00   0.00000000000000E+00
      0.00000000000000E+00   0.00000000000000E+00   0.00000000000000E+00   0.00000000000000E+00   0.00000000000000E+00
      1.94041337718703E-18   0.00000000000000E+00   0.00000000000000E+00   0.00000000000000E+00   0.00000000000000E+00
      8.15714923322313E-17   1.75117022741427E-34   8.15714923322313E-17  -9.97185387667284E-18   9.38785386277484E-03
      9.38785358478632E-03   0.00000000000000E+00   0.00000000000000E+00   1.12889587648814E-09  -1.02540124647261E-34
      1.12889587648814E-09   3.92235297653692E-18
      1.97757077255497E-01
      0.00000000000000E+00   2.89308320687441E-10   0.00000000000000E+00   0.00000000000000E+00  -1.16794541925121E-09