DF-ISE text

Info {
  version   = 1.0
  type      = xyplot
  datasets  = [
    "time"
    "source OuterVoltage" "source InnerVoltage" "source QuasiFermiPotential" "source DisplacementCurrent" "source eCurrent"
    "source hCurrent" "source TotalCurrent" "source Charge" "gate OuterVoltage" "gate InnerVoltage"
    "gate QuasiFermiPotential" "gate DisplacementCurrent" "gate eCurrent" "gate hCurrent" "gate TotalCurrent"
    "gate Charge" "substrate OuterVoltage" "substrate InnerVoltage" "substrate QuasiFermiPotential" "substrate DisplacementCurrent"
    "substrate eCurrent" "substrate hCurrent" "substrate TotalCurrent" "substrate Charge" "drain OuterVoltage"
    "drain InnerVoltage" "drain QuasiFermiPotential" "drain DisplacementCurrent" "drain eCurrent" "drain hCurrent"
    "drain TotalCurrent" "drain Charge" ]
  functions = [
    Time
    OuterVoltage InnerVoltage QuasiFermiPotential DisplacementCurrent eCurrent
    hCurrent TotalCurrent Charge OuterVoltage InnerVoltage
    QuasiFermiPotential DisplacementCurrent eCurrent hCurrent TotalCurrent
    Charge OuterVoltage InnerVoltage QuasiFermiPotential DisplacementCurrent
    eCurrent hCurrent TotalCurrent Charge OuterVoltage
    InnerVoltage QuasiFermiPotential DisplacementCurrent eCurrent hCurrent
    TotalCurrent Charge ]
}

Data {
      0.00000000000000E+00
      0.00000000000000E+00   0.00000000000000E+00   0.00000000000000E+00   0.00000000000000E+00   1.28083377499550E-20
      5.25088350837918E-34   1.28083377499555E-20   5.16926004507533E-18   0.00000000000000E+00   0.00000000000000E+00
      0.00000000000000E+00   0.00000000000000E+00   0.00000000000000E+00   0.00000000000000E+00   0.00000000000000E+00
      2.00840164259102E-18   0.00000000000000E+00   0.00000000000000E+00   0.00000000000000E+00   0.00000000000000E+00
     -2.52010341907025E-20  -9.95826117295090E-34  -2.52010341907035E-20  -1.20201835195483E-17   0.00000000000000E+00
      0.00000000000000E+00   0.00000000000000E+00   0.00000000000000E+00   1.23926964407475E-20   4.70737766457172E-34
      1.23926964407480E-20   4.84252183188196E-18
      0.00000000000000E+00
      0.00000000000000E+00   0.00000000000000E+00   0.00000000000000E+00   0.00000000000000E+00  -1.61724718735333E-19
      5.38234262243635E-34  -1.61724718735332E-19   5.16742794542724E-18   0.00000000000000E+00   0.00000000000000E+00
      0.00000000000000E+00   0.00000000000000E+00   0.00000000000000E+00   0.00000000000000E+00   0.00000000000000E+00
      2.00330001376723E-18   0.00000000000000E+00   0.00000000000000E+00   0.00000000000000E+00   0.00000000000000E+00
      4.37842820935891E-19  -1.04908315744081E-33   4.37842820935890E-19  -1.20117192411520E-17   0.00000000000000E+00
      0.00000000000000E+00   0.00000000000000E+00   0.00000000000000E+00  -2.76118102200558E-19   5.10848895197172E-34
     -2.76118102200558E-19   4.84099128195751E-18
      1.00000000000000E-03
      0.00000000000000E+00   4.88534419720397E-11   0.00000000000000E+00   0.00000000000000E+00  -2.49952662256988E-10
      5.26793263707223E-34  -2.49952662256988E-10   5.16686306110417E-18   0.00000000000000E+00   0.00000000000000E+00
      0.00000000000000E+00   0.00000000000000E+00   0.00000000000000E+00   0.00000000000000E+00   0.00000000000000E+00
      1.99162155926517E-18   0.00000000000000E+00   0.00000000000000E+00   0.00000000000000E+00   0.00000000000000E+00
      2.02067681221514E-19  -9.88943951528726E-34   2.02067681221513E-19  -1.20110329677822E-17   8.60000000000000E-04
      8.59999950937294E-04   0.00000000000000E+00   0.00000000000000E+00   2.49952662054920E-10   4.62150687821504E-34
      2.49952662054920E-10   4.85254834741288E-18
      2.08666666666667E-03
      0.00000000000000E+00   9.85801164002564E-11   0.00000000000000E+00   0.00000000000000E+00  -5.04357494518812E-10
      5.20124411252479E-34  -5.04357494518812E-10   5.16624936189781E-18   0.00000000000000E+00   0.00000000000000E+00
      0.00000000000000E+00   0.00000000000000E+00   0.00000000000000E+00   0.00000000000000E+00   0.00000000000000E+00
      1.97893376894009E-18   0.00000000000000E+00   0.00000000000000E+00   0.00000000000000E+00   0.00000000000000E+00
     -1.84594166037266E-19  -9.90351672096335E-34  -1.84594166037267E-19  -1.20102948355036E-17   1.79453333333333E-03
      1.79453323433189E-03   0.00000000000000E+00   0.00000000000000E+00   5.04357494703406E-10   4.70227260843856E-34
      5.04357494703406E-10   4.86511170466562E-18
      3.27475555555556E-03
      0.00000000000000E+00   1.49008860273988E-10   0.00000000000000E+00   0.00000000000000E+00  -7.62332141378466E-10
      5.43553929702146E-34  -7.62332141378466E-10   5.16557855171510E-18   0.00000000000000E+00   0.00000000000000E+00
      0.00000000000000E+00   0.00000000000000E+00   0.00000000000000E+00   0.00000000000000E+00   0.00000000000000E+00
      1.96506507365457E-18   0.00000000000000E+00   0.00000000000000E+00   0.00000000000000E+00   0.00000000000000E+00
     -1.09568061323493E-19  -9.98445827312543E-34  -1.09568061323494E-19  -1.20094967959947E-17   2.81628977777778E-03
      2.81628962813348E-03   0.00000000000000E+00   0.00000000000000E+00   7.62332141488034E-10   4.54891897610397E-34
      7.62332141488034E-10   4.87885317062508E-18
      4.57373274074074E-03
      0.00000000000000E+00   1.99658095229133E-10   0.00000000000000E+00   0.00000000000000E+00  -1.02141017135643E-09
      5.59994773915879E-34  -1.02141017135643E-09   5.16484533041611E-18   0.00000000000000E+00   0.00000000000000E+00
      0.00000000000000E+00   0.00000000000000E+00   0.00000000000000E+00   0.00000000000000E+00   0.00000000000000E+00
      1.94990584076059E-18   0.00000000000000E+00   0.00000000000000E+00   0.00000000000000E+00   0.00000000000000E+00
      2.32133917985184E-19  -9.87973143790092E-34   2.32133917985183E-19  -1.20086348916490E-17   3.93341015703704E-03
      3.93340995652942E-03   0.00000000000000E+00   0.00000000000000E+00   1.02141017112430E-09   4.27978369874214E-34
      1.02141017112430E-09   4.89388372047225E-18
      5.99394779654321E-03
      0.00000000000000E+00   2.50014931293072E-10   0.00000000000000E+00   0.00000000000000E+00  -1.27896743651740E-09
      5.29012860466858E-34  -1.27896743651740E-09   5.16404390794024E-18   0.00000000000000E+00   0.00000000000000E+00
      0.00000000000000E+00   0.00000000000000E+00   0.00000000000000E+00   0.00000000000000E+00   0.00000000000000E+00
      1.93333630328497E-18   0.00000000000000E+00   0.00000000000000E+00   0.00000000000000E+00   0.00000000000000E+00
     -6.55964556119332E-20  -9.32280157763017E-34  -6.55964556119342E-20  -1.20077050797494E-17   5.15479510502716E-03
      5.15479485395096E-03   0.00000000000000E+00   0.00000000000000E+00   1.27896743658300E-09   4.03267297296160E-34
      1.27896743658300E-09   4.91032486852415E-18
      7.54671625755391E-03
      0.00000000000000E+00   2.99536456848139E-10   0.00000000000000E+00   0.00000000000000E+00  -1.53222961212600E-09
      5.23970475039370E-34  -1.53222961212600E-09   5.16316795927682E-18   0.00000000000000E+00   0.00000000000000E+00
      0.00000000000000E+00   0.00000000000000E+00   0.00000000000000E+00   0.00000000000000E+00   0.00000000000000E+00
      1.91522562833064E-18   0.00000000000000E+00   0.00000000000000E+00   0.00000000000000E+00   0.00000000000000E+00
     -4.74727083299560E-19  -9.11058387742640E-34  -4.74727083299561E-19  -1.20067032696343E-17   6.49017598149636E-03
      6.49017568069155E-03   0.00000000000000E+00   0.00000000000000E+00   1.53222961260072E-09   3.87087912703269E-34
      1.53222961260072E-09   4.92830968202686E-18
      9.24440977492561E-03
      0.00000000000000E+00   3.47660065786265E-10   0.00000000000000E+00   0.00000000000000E+00  -1.77832510891692E-09
      5.45998152524526E-34  -1.77832510891692E-09   5.16221057526387E-18   0.00000000000000E+00   0.00000000000000E+00
      0.00000000000000E+00   0.00000000000000E+00   0.00000000000000E+00   0.00000000000000E+00   0.00000000000000E+00
      1.89543090018474E-18   0.00000000000000E+00   0.00000000000000E+00   0.00000000000000E+00   0.00000000000000E+00
      1.07679299806167E-20  -9.33482176951288E-34   1.07679299806157E-20  -1.20056253696970E-17   7.95019240643603E-03
      7.95019205730753E-03   0.00000000000000E+00   0.00000000000000E+00   1.77832510890616E-09   3.87484024426763E-34
      1.77832510890616E-09   4.94798389424832E-18
      1.11005546872520E-02
      0.00000000000000E+00   3.93819216741990E-10   0.00000000000000E+00   0.00000000000000E+00  -2.01436637449430E-09
      5.23217414852977E-34  -2.01436637449430E-09   5.16116420882088E-18   0.00000000000000E+00   0.00000000000000E+00
      0.00000000000000E+00   0.00000000000000E+00   0.00000000000000E+00   0.00000000000000E+00   0.00000000000000E+00
      1.87379601002866E-18   0.00000000000000E+00   0.00000000000000E+00   0.00000000000000E+00   0.00000000000000E+00
      3.46804282876911E-19  -8.72289227186694E-34   3.46804282876910E-19  -1.20044673451838E-17   9.54647703103672E-03
      9.54647663555844E-03   0.00000000000000E+00   0.00000000000000E+00   2.01436637414750E-09   3.49071812333717E-34
      2.01436637414750E-09   4.96950712633432E-18
      1.31299397913955E-02
      0.00000000000000E+00   4.37464482913318E-10   0.00000000000000E+00   0.00000000000000E+00  -2.23755785437174E-09
      5.41811393114441E-34  -2.23755785437174E-09   5.16002061619513E-18   0.00000000000000E+00   0.00000000000000E+00
      0.00000000000000E+00   0.00000000000000E+00   0.00000000000000E+00   0.00000000000000E+00   0.00000000000000E+00
      1.85015044350463E-18   0.00000000000000E+00   0.00000000000000E+00   0.00000000000000E+00   0.00000000000000E+00
     -2.37912338093922E-19  -8.67375854318850E-34  -2.37912338093923E-19  -1.20032252885025E-17   1.12917482206002E-02
      1.12917477812978E-02   0.00000000000000E+00   0.00000000000000E+00   2.23755785460965E-09   3.25564461204409E-34
      2.23755785460965E-09   4.99305422880274E-18
      1.53487341719258E-02
      0.00000000000000E+00   4.78089334782538E-10   0.00000000000000E+00   0.00000000000000E+00  -2.44532873057807E-09
      5.39554638963684E-34  -2.44532873057807E-09   5.15877079270494E-18   0.00000000000000E+00   0.00000000000000E+00
      0.00000000000000E+00   0.00000000000000E+00   0.00000000000000E+00   0.00000000000000E+00   0.00000000000000E+00
      1.82430795571190E-18   0.00000000000000E+00   0.00000000000000E+00   0.00000000000000E+00   0.00000000000000E+00
      9.37009970248818E-20  -8.49378600655037E-34   9.37009970248810E-20  -1.20018955023860E-17   1.31999113878562E-02
      1.31999109077641E-02   0.00000000000000E+00   0.00000000000000E+00   2.44532873048437E-09   3.09823961691353E-34
      2.44532873048437E-09   5.01881675396920E-18
      1.77746160279722E-02
      0.00000000000000E+00   5.15260119562340E-10   0.00000000000000E+00   0.00000000000000E+00  -2.63548586633380E-09
      5.58744039675560E-34  -2.63548586633380E-09   5.15740490244214E-18   0.00000000000000E+00   0.00000000000000E+00
      0.00000000000000E+00   0.00000000000000E+00   0.00000000000000E+00   0.00000000000000E+00   0.00000000000000E+00
      1.79606512293393E-18   0.00000000000000E+00   0.00000000000000E+00   0.00000000000000E+00   0.00000000000000E+00
     -2.71078519513860E-19  -8.42916252349218E-34  -2.71078519513861E-19  -1.20004745975028E-17   1.52861697840561E-02
      1.52861692666442E-02   0.00000000000000E+00   0.00000000000000E+00   2.63548586660488E-09   2.84172212673659E-34
      2.63548586660488E-09   5.04700457212679E-18
      2.04269135239163E-02
      0.00000000000000E+00   5.48648220092715E-10   0.00000000000000E+00   0.00000000000000E+00  -2.80637875361054E-09
      5.54760924651812E-34  -2.80637875361054E-09   5.15591220140494E-18   0.00000000000000E+00   0.00000000000000E+00
      0.00000000000000E+00   0.00000000000000E+00   0.00000000000000E+00   0.00000000000000E+00   0.00000000000000E+00
      1.76519976079992E-18   0.00000000000000E+00   0.00000000000000E+00   0.00000000000000E+00   0.00000000000000E+00
     -2.82785706676571E-19  -8.21598015837927E-34  -2.82785706676572E-19  -1.19989596082285E-17   1.75671456305680E-02
      1.75671450796363E-02   0.00000000000000E+00   0.00000000000000E+00   2.80637875389333E-09   2.66837091186114E-34
      2.80637875389333E-09   5.07784764602363E-18
      2.33267587861485E-02
      0.00000000000000E+00   5.78064775461343E-10   0.00000000000000E+00   0.00000000000000E+00  -2.95707691078269E-09
      5.39230586001041E-34  -2.95707691078269E-09   5.15428095324408E-18   0.00000000000000E+00   0.00000000000000E+00
      0.00000000000000E+00   0.00000000000000E+00   0.00000000000000E+00   0.00000000000000E+00   0.00000000000000E+00
      1.73146919161215E-18   0.00000000000000E+00   0.00000000000000E+00   0.00000000000000E+00   0.00000000000000E+00
      2.40243800737746E-19  -7.71339021946163E-34   2.40243800737745E-19  -1.19973481217243E-17   2.00610125560877E-02
      2.00610119756261E-02   0.00000000000000E+00   0.00000000000000E+00   2.95707691054245E-09   2.32108435945122E-34
      2.95707691054245E-09   5.11159797686815E-18
      2.64972562728556E-02
      0.00000000000000E+00   6.03493827024560E-10   0.00000000000000E+00   0.00000000000000E+00  -3.08753875005238E-09
      5.06516502908759E-34  -3.08753875005238E-09   5.15249833703616E-18   0.00000000000000E+00   0.00000000000000E+00
      0.00000000000000E+00   0.00000000000000E+00   0.00000000000000E+00   0.00000000000000E+00   0.00000000000000E+00
      1.69460835000532E-18   0.00000000000000E+00   0.00000000000000E+00   0.00000000000000E+00   0.00000000000000E+00
      2.88367666311458E-19  -7.39822367746675E-34   2.88367666311457E-19  -1.19956384275102E-17   2.27876403946559E-02
      2.27876397886707E-02   0.00000000000000E+00   0.00000000000000E+00   3.08753874976402E-09   2.33305864837916E-34
      3.08753874976402E-09   5.14853174046875E-18
      2.99636668583222E-02
      0.00000000000000E+00   6.25121261083606E-10   0.00000000000000E+00   0.00000000000000E+00  -3.19875822713707E-09
      5.41517379311695E-34  -3.19875822713707E-09   5.15055034597779E-18   0.00000000000000E+00   0.00000000000000E+00
      0.00000000000000E+00   0.00000000000000E+00   0.00000000000000E+00   0.00000000000000E+00   0.00000000000000E+00
      1.65432770094422E-18   0.00000000000000E+00   0.00000000000000E+00   0.00000000000000E+00   0.00000000000000E+00
     -1.99980790216897E-19  -7.34604759260438E-34  -1.99980790216897E-19  -1.19938296731268E-17   2.57687534981571E-02
      2.57687528704690E-02   0.00000000000000E+00   0.00000000000000E+00   3.19875822733705E-09   1.93087379948743E-34
      3.19875822733705E-09   5.18895162620473E-18
      3.37536090984323E-02
      0.00000000000000E+00   6.43351050509361E-10   0.00000000000000E+00   0.00000000000000E+00  -3.29284621792941E-09
      5.37823892272940E-34  -3.29284621792941E-09   5.14842167661629E-18   0.00000000000000E+00   0.00000000000000E+00
      0.00000000000000E+00   0.00000000000000E+00   0.00000000000000E+00   0.00000000000000E+00   0.00000000000000E+00
      1.61031096572501E-18   0.00000000000000E+00   0.00000000000000E+00   0.00000000000000E+00   0.00000000000000E+00
     -5.53315114517961E-19  -7.12783585139217E-34  -5.53315114517962E-19  -1.19919220471055E-17   2.90281038246517E-02
      2.90281031786771E-02   0.00000000000000E+00   0.00000000000000E+00   3.29284621848273E-09   1.74959692866276E-34
      3.29284621848273E-09   5.23318940476423E-18
      3.78972792809526E-02
      0.00000000000000E+00   6.58805584886947E-10   0.00000000000000E+00   0.00000000000000E+00  -3.37302942170031E-09
      5.41218246197573E-34  -3.37302942170031E-09   5.14609560715313E-18   0.00000000000000E+00   0.00000000000000E+00
      0.00000000000000E+00   0.00000000000000E+00   0.00000000000000E+00   0.00000000000000E+00   0.00000000000000E+00
      1.56221261856897E-18   0.00000000000000E+00   0.00000000000000E+00   0.00000000000000E+00   0.00000000000000E+00
      5.61485054071391E-20  -6.98314290693124E-34   5.61485054071384E-20  -1.19899169631042E-17   3.25916601816192E-02
      3.25916595201513E-02   0.00000000000000E+00   0.00000000000000E+00   3.37302942164416E-09   1.57096044495550E-34
      3.37302942164416E-09   5.28160873738210E-18
      4.24276920138415E-02
      0.00000000000000E+00   6.72300788866245E-10   0.00000000000000E+00   0.00000000000000E+00  -3.44352264531563E-09
      5.64479090440675E-34  -3.44352264531563E-09   5.14355386456756E-18   0.00000000000000E+00   0.00000000000000E+00
      0.00000000000000E+00   0.00000000000000E+00   0.00000000000000E+00   0.00000000000000E+00   0.00000000000000E+00
      1.50965514280636E-18   0.00000000000000E+00   0.00000000000000E+00   0.00000000000000E+00   0.00000000000000E+00
     -1.58752445540788E-18  -7.00506655912324E-34  -1.58752445540788E-18  -1.19878172581607E-17   3.64878151319037E-02
      3.64878144569194E-02   0.00000000000000E+00   0.00000000000000E+00   3.44352264690316E-09   1.36027565471649E-34
      3.44352264690316E-09   5.33460825078672E-18
      4.73809432684667E-02
      0.00000000000000E+00   6.84782204016805E-10   0.00000000000000E+00   0.00000000000000E+00  -3.50920388527971E-09
      5.45657899447877E-34  -3.50920388527971E-09   5.14077648098276E-18   0.00000000000000E+00   0.00000000000000E+00
      0.00000000000000E+00   0.00000000000000E+00   0.00000000000000E+00   0.00000000000000E+00   0.00000000000000E+00
      1.45222603082201E-18   0.00000000000000E+00   0.00000000000000E+00   0.00000000000000E+00   0.00000000000000E+00
     -4.56352567685997E-18  -6.61989636904778E-34  -4.56352567685997E-18  -1.19856274159878E-17   4.07476112108814E-02
      4.07476105234119E-02   0.00000000000000E+00   0.00000000000000E+00   3.50920388984324E-09   1.16331737456901E-34
      3.50920388984324E-09   5.39262490418310E-18
      5.27964979735236E-02
      0.00000000000000E+00   6.97198930684890E-10   0.00000000000000E+00   0.00000000000000E+00  -3.57496180720781E-09
      5.19649252776517E-34  -3.57496180720781E-09   5.13774163879463E-18   0.00000000000000E+00   0.00000000000000E+00
      0.00000000000000E+00   0.00000000000000E+00   0.00000000000000E+00   0.00000000000000E+00   0.00000000000000E+00
      1.38947449810608E-18   0.00000000000000E+00   0.00000000000000E+00   0.00000000000000E+00   0.00000000000000E+00
      2.92969171190145E-20  -6.16068723550309E-34   2.92969171190139E-20  -1.19833538016735E-17   4.54049882572303E-02
      4.54049875573580E-02   0.00000000000000E+00   0.00000000000000E+00   3.57496180717852E-09   9.64194707737917E-35
      3.57496180717852E-09   5.45613766477284E-18
      5.86814007530188E-02
      0.00000000000000E+00   7.10271549581425E-10   0.00000000000000E+00   0.00000000000000E+00  -3.64447165498590E-09
      5.28733180356256E-34  -3.64447165498590E-09   5.13444571640295E-18   0.00000000000000E+00   0.00000000000000E+00
      0.00000000000000E+00   0.00000000000000E+00   0.00000000000000E+00   0.00000000000000E+00   0.00000000000000E+00
      1.32132585562291E-18   0.00000000000000E+00   0.00000000000000E+00   0.00000000000000E+00   0.00000000000000E+00
     -1.35361883545362E-19  -6.08581764794314E-34  -1.35361883545363E-19  -1.19810188216310E-17   5.04660046475962E-02
      5.04660039346818E-02   0.00000000000000E+00   0.00000000000000E+00   3.64447165512127E-09   7.98485844380575E-35
      3.64447165512127E-09   5.52524724960510E-18
      6.50763284400702E-02
      0.00000000000000E+00   7.24582429154153E-10   0.00000000000000E+00   0.00000000000000E+00  -3.72070028164096E-09
      5.36504095702507E-34  -3.72070028164096E-09   5.13086627306311E-18   0.00000000000000E+00   0.00000000000000E+00
      0.00000000000000E+00   0.00000000000000E+00   0.00000000000000E+00   0.00000000000000E+00   0.00000000000000E+00
      1.24731609810858E-18   0.00000000000000E+00   0.00000000000000E+00   0.00000000000000E+00   0.00000000000000E+00
     -4.71277887088422E-20  -6.05759833160167E-34  -4.71277887088428E-20  -1.19786331419536E-17   5.59656424584604E-02
      5.59656417312830E-02   0.00000000000000E+00   0.00000000000000E+00   3.72070028168810E-09   6.92557374576598E-35
      3.72070028168810E-09   5.60045077078192E-18
      7.20254831933328E-02
      0.00000000000000E+00   7.40546771327367E-10   0.00000000000000E+00   0.00000000000000E+00  -3.80580997951662E-09
      5.41163577945361E-34  -3.80580997951662E-09   5.12697894471537E-18   0.00000000000000E+00   0.00000000000000E+00
      0.00000000000000E+00   0.00000000000000E+00   0.00000000000000E+00   0.00000000000000E+00   0.00000000000000E+00
      1.16694118938108E-18   0.00000000000000E+00   0.00000000000000E+00   0.00000000000000E+00   0.00000000000000E+00
     -4.04456250592412E-19  -5.96494902888594E-34  -4.04456250592413E-19  -1.19762097497186E-17   6.19419155462662E-02
      6.19419148031949E-02   0.00000000000000E+00   0.00000000000000E+00   3.80580997992108E-09   5.53313249432326E-35
      3.80580997992108E-09   5.68228961562210E-18
      7.95768980252114E-02
      0.00000000000000E+00   7.58398875335403E-10   0.00000000000000E+00   0.00000000000000E+00  -3.90106153999191E-09
      5.28209317636512E-34  -3.90106153999191E-09   5.12275729450730E-18   0.00000000000000E+00   0.00000000000000E+00
      0.00000000000000E+00   0.00000000000000E+00   0.00000000000000E+00   0.00000000000000E+00   0.00000000000000E+00
      1.07965368531154E-18   0.00000000000000E+00   0.00000000000000E+00   0.00000000000000E+00   0.00000000000000E+00
      9.80418321877081E-21  -5.73513625341934E-34   9.80418321877024E-21  -1.19737643152362E-17   6.84361323016818E-02
      6.84361315408563E-02   0.00000000000000E+00   0.00000000000000E+00   3.90106153998210E-09   4.53043077054227E-35
      3.90106153998210E-09   5.77135333541739E-18
      8.77827688091861E-02
      0.00000000000000E+00   7.78220842926454E-10   0.00000000000000E+00   0.00000000000000E+00  -4.00690805221929E-09
      5.40514817931680E-34  -4.00690805221929E-09   5.11817264279250E-18   0.00000000000000E+00   0.00000000000000E+00
      0.00000000000000E+00   0.00000000000000E+00   0.00000000000000E+00   0.00000000000000E+00   0.00000000000000E+00
      9.84859018806419E-19   0.00000000000000E+00   0.00000000000000E+00   0.00000000000000E+00   0.00000000000000E+00
     -5.70495797766966E-20  -5.76887248606168E-34  -5.70495797766971E-20  -1.19713155069870E-17   7.54931811759001E-02
      7.54931803953719E-02   0.00000000000000E+00   0.00000000000000E+00   4.00690805227634E-09   3.63724306744873E-35
      4.00690805227634E-09   5.86828384538806E-18
      9.66998150611054E-02
      0.00000000000000E+00   8.00114380149242E-10   0.00000000000000E+00   0.00000000000000E+00  -4.12392713089953E-09
      5.28237047782200E-34  -4.12392713089953E-09   5.11319385820415E-18   0.00000000000000E+00   0.00000000000000E+00
      0.00000000000000E+00   0.00000000000000E+00   0.00000000000000E+00   0.00000000000000E+00   0.00000000000000E+00
      8.81911342677950E-19   0.00000000000000E+00   0.00000000000000E+00   0.00000000000000E+00   0.00000000000000E+00
      5.05417132812326E-20  -5.55285486827297E-34   5.05417132812320E-20  -1.19688851448756E-17   8.31618409525506E-02
      8.31618401502600E-02   0.00000000000000E+00   0.00000000000000E+00   4.12392713084899E-09   2.70484390450970E-35
      4.12392713084899E-09   5.97377994399347E-18
      1.06389671988191E-01
      0.00000000000000E+00   8.24310321788421E-10   0.00000000000000E+00   0.00000000000000E+00  -4.25342018721004E-09
      5.13586260627745E-34  -4.25342018721004E-09   5.10778713311675E-18   0.00000000000000E+00   0.00000000000000E+00
      0.00000000000000E+00   0.00000000000000E+00   0.00000000000000E+00   0.00000000000000E+00   0.00000000000000E+00
      7.70109010707650E-19   0.00000000000000E+00   0.00000000000000E+00   0.00000000000000E+00   0.00000000000000E+00
      4.01963946489744E-20  -5.32712551716806E-34   4.01963946489739E-20  -1.19664983417315E-17   9.14951179098442E-02
      9.14951170835070E-02   0.00000000000000E+00   0.00000000000000E+00   4.25342018716985E-09   1.91262910890607E-35
      4.25342018716985E-09   6.08860219790707E-18
      1.16389671988191E-01
      0.00000000000000E+00   8.49794079717812E-10   0.00000000000000E+00   0.00000000000000E+00  -4.39000535995509E-09
      4.96029080475457E-34  -4.39000535995509E-09   5.10221100876143E-18   0.00000000000000E+00   0.00000000000000E+00
      0.00000000000000E+00   0.00000000000000E+00   0.00000000000000E+00   0.00000000000000E+00   0.00000000000000E+00
      6.54795550643333E-19   0.00000000000000E+00   0.00000000000000E+00   0.00000000000000E+00   0.00000000000000E+00
     -1.72099757297092E-19  -5.10234080206301E-34  -1.72099757297093E-19  -1.19642936585701E-17   1.00095117909844E-01
      1.00095117058202E-01   0.00000000000000E+00   0.00000000000000E+00   4.39000536012720E-09   1.42049997308439E-35
      4.39000536012720E-09   6.20728709916531E-18
      1.26389671988191E-01
      0.00000000000000E+00   8.75883696007058E-10   0.00000000000000E+00   0.00000000000000E+00  -4.53003360127023E-09
      5.16050334506302E-34  -4.53003360127023E-09   5.09663840660712E-18   0.00000000000000E+00   0.00000000000000E+00
      0.00000000000000E+00   0.00000000000000E+00   0.00000000000000E+00   0.00000000000000E+00   0.00000000000000E+00
      5.39544780440577E-19   0.00000000000000E+00   0.00000000000000E+00   0.00000000000000E+00   0.00000000000000E+00
     -4.56853231711430E-19  -5.26685796260335E-34  -4.56853231711431E-19  -1.19623335681084E-17   1.08695117909844E-01
      1.08695117032319E-01   0.00000000000000E+00   0.00000000000000E+00   4.53003360172708E-09   1.06354617540330E-35
      4.53003360172708E-09   6.32615038106066E-18
      1.36389671988191E-01
      0.00000000000000E+00   9.02645859037102E-10   0.00000000000000E+00   0.00000000000000E+00  -4.67385977964440E-09
      5.45661984888891E-34  -4.67385977964440E-09   5.09106916415242E-18   0.00000000000000E+00   0.00000000000000E+00
      0.00000000000000E+00   0.00000000000000E+00   0.00000000000000E+00   0.00000000000000E+00   0.00000000000000E+00
      4.24351691499086E-19   0.00000000000000E+00   0.00000000000000E+00   0.00000000000000E+00   0.00000000000000E+00
     -1.61418764252996E-20  -5.53452916592748E-34  -1.61418764253001E-20  -1.19606016224369E-17   1.17295117909844E-01
      1.17295117005778E-01   0.00000000000000E+00   0.00000000000000E+00   4.67385977966054E-09   7.79093170385731E-36
      4.67385977966054E-09   6.44518076678542E-18
      1.46389671988191E-01
      0.00000000000000E+00   9.30117188380328E-10   0.00000000000000E+00   0.00000000000000E+00  -4.82168094556998E-09
      4.98265468721031E-34  -4.82168094556998E-09   5.08550313380109E-18   0.00000000000000E+00   0.00000000000000E+00
      0.00000000000000E+00   0.00000000000000E+00   0.00000000000000E+00   0.00000000000000E+00   0.00000000000000E+00
      3.09211866694879E-19   0.00000000000000E+00   0.00000000000000E+00   0.00000000000000E+00   0.00000000000000E+00
     -9.77786799371435E-20  -5.03968025896054E-34  -9.77786799371440E-20  -1.19590828224832E-17   1.25895117909844E-01
      1.25895116978529E-01   0.00000000000000E+00   0.00000000000000E+00   4.82168094566776E-09   5.70255717502400E-36
      4.82168094566776E-09   6.56436782198723E-18
      1.56389671988191E-01
      0.00000000000000E+00   9.58310500928441E-10   0.00000000000000E+00   0.00000000000000E+00  -4.97356985301461E-09
      5.16218812465736E-34  -4.97356985301461E-09   5.07994018000694E-18   0.00000000000000E+00   0.00000000000000E+00
      0.00000000000000E+00   0.00000000000000E+00   0.00000000000000E+00   0.00000000000000E+00   0.00000000000000E+00
      1.94121389029465E-19   0.00000000000000E+00   0.00000000000000E+00   0.00000000000000E+00   0.00000000000000E+00
      8.78075132186321E-20  -5.20645389975039E-34   8.78075132186316E-20  -1.19577634414052E-17   1.34495117909844E-01
      1.34495116950560E-01   0.00000000000000E+00   0.00000000000000E+00   4.97356985292680E-09   4.42657750930277E-36
      4.97356985292680E-09   6.68370187236878E-18
      1.66389671988191E-01
      0.00000000000000E+00   9.87226754018028E-10   0.00000000000000E+00   0.00000000000000E+00  -5.12953632099480E-09
      5.44120018878397E-34  -5.12953632099480E-09   5.07438017860576E-18   0.00000000000000E+00   0.00000000000000E+00
      0.00000000000000E+00   0.00000000000000E+00   0.00000000000000E+00   0.00000000000000E+00   0.00000000000000E+00
      7.90767761784238E-20   0.00000000000000E+00   0.00000000000000E+00   0.00000000000000E+00   0.00000000000000E+00
     -3.74291385761165E-19  -5.47130529519671E-34  -3.74291385761165E-19  -1.19566308887937E-17   1.43095117909844E-01
      1.43095116921870E-01   0.00000000000000E+00   0.00000000000000E+00   5.12953632136910E-09   3.01051064127359E-36
      5.12953632136910E-09   6.80317393400944E-18
      1.76389671988191E-01
      0.00000000000000E+00   1.01686444503609E-09   0.00000000000000E+00   0.00000000000000E+00  -5.28957951623905E-09
      4.84722374141828E-34  -5.28957951623905E-09   5.06882302027131E-18   0.00000000000000E+00   0.00000000000000E+00
      0.00000000000000E+00   0.00000000000000E+00   0.00000000000000E+00   0.00000000000000E+00   0.00000000000000E+00
     -3.59250254312830E-20   0.00000000000000E+00   0.00000000000000E+00   0.00000000000000E+00   0.00000000000000E+00
     -1.49571065626066E-19  -4.86970250591857E-34  -1.49571065626066E-19  -1.19556736575723E-17   1.51695117909844E-01
      1.51695116892464E-01   0.00000000000000E+00   0.00000000000000E+00   5.28957951638862E-09   2.24787645002850E-36
      5.28957951638862E-09   6.92277566273230E-18
      1.86389671988191E-01
      0.00000000000000E+00   1.04722616052901E-09   0.00000000000000E+00   0.00000000000000E+00  -5.45372246219669E-09