DF-ISE text

Info {
  version   = 1.0
  type      = xyplot
  datasets  = [
    "time"
    "source OuterVoltage" "source InnerVoltage" "source QuasiFermiPotential" "source DisplacementCurrent" "source eCurrent"
    "source hCurrent" "source TotalCurrent" "source Charge" "gate OuterVoltage" "gate InnerVoltage"
    "gate QuasiFermiPotential" "gate DisplacementCurrent" "gate eCurrent" "gate hCurrent" "gate TotalCurrent"
    "gate Charge" "substrate OuterVoltage" "substrate InnerVoltage" "substrate QuasiFermiPotential" "substrate DisplacementCurrent"
    "substrate eCurrent" "substrate hCurrent" "substrate TotalCurrent" "substrate Charge" "drain OuterVoltage"
    "drain InnerVoltage" "drain QuasiFermiPotential" "drain DisplacementCurrent" "drain eCurrent" "drain hCurrent"
    "drain TotalCurrent" "drain Charge" ]
  functions = [
    Time
    OuterVoltage InnerVoltage QuasiFermiPotential DisplacementCurrent eCurrent
    hCurrent TotalCurrent Charge OuterVoltage InnerVoltage
    QuasiFermiPotential DisplacementCurrent eCurrent hCurrent TotalCurrent
    Charge OuterVoltage InnerVoltage QuasiFermiPotential DisplacementCurrent
    eCurrent hCurrent TotalCurrent Charge OuterVoltage
    InnerVoltage QuasiFermiPotential DisplacementCurrent eCurrent hCurrent
    TotalCurrent Charge ]
}

Data {
      0.00000000000000E+00
      0.00000000000000E+00   0.00000000000000E+00   0.00000000000000E+00   0.00000000000000E+00   3.60150305089846E-22
     -1.79442030121308E-34   3.60150305089667E-22   4.31652206618529E-18   0.00000000000000E+00   0.00000000000000E+00
      0.00000000000000E+00   0.00000000000000E+00   0.00000000000000E+00   0.00000000000000E+00   0.00000000000000E+00
      2.69594591060341E-18   0.00000000000000E+00   0.00000000000000E+00   0.00000000000000E+00   0.00000000000000E+00
     -2.77410423410963E-21   3.36891000720764E-34  -2.77410423410930E-21  -1.05230428451217E-17   0.00000000000000E+00
      0.00000000000000E+00   0.00000000000000E+00   0.00000000000000E+00   2.41395392901979E-21  -1.57448970599457E-34
      2.41395392901963E-21   3.51057486833299E-18
      0.00000000000000E+00
      0.00000000000000E+00   0.00000000000000E+00   0.00000000000000E+00   0.00000000000000E+00  -2.67333541598028E-20
     -1.71943840442442E-34  -2.67333541598030E-20   4.31493009246057E-18   0.00000000000000E+00   0.00000000000000E+00
      0.00000000000000E+00   0.00000000000000E+00   0.00000000000000E+00   0.00000000000000E+00   0.00000000000000E+00
      2.69033820541854E-18   0.00000000000000E+00   0.00000000000000E+00   0.00000000000000E+00   0.00000000000000E+00
      2.70567533007515E-20   3.75982425495854E-34   2.70567533007519E-20  -1.05147217108019E-17   0.00000000000000E+00
      0.00000000000000E+00   0.00000000000000E+00   0.00000000000000E+00  -3.23399140948678E-22  -2.04038585053413E-34
     -3.23399140948882E-22   3.50945341292282E-18
      1.00000000000000E-03
      0.00000000000000E+00   2.95231846262355E-12   0.00000000000000E+00   0.00000000000000E+00  -1.23631662302841E-11
     -1.59279172489615E-34  -1.23631662302841E-11   4.31491508846898E-18   0.00000000000000E+00   0.00000000000000E+00
      0.00000000000000E+00   0.00000000000000E+00   0.00000000000000E+00   0.00000000000000E+00   0.00000000000000E+00
      2.68978597650006E-18   0.00000000000000E+00   0.00000000000000E+00   0.00000000000000E+00   0.00000000000000E+00
     -1.18509891211939E-19   3.42397008683901E-34  -1.18509891211939E-19  -1.05146974640683E-17   5.00000000000000E-05
      4.99999970139395E-05   0.00000000000000E+00   0.00000000000000E+00   1.23631663487940E-11  -1.83117836194287E-34
      1.23631663487940E-11   3.50999639909918E-18
      2.09333333333333E-03
      0.00000000000000E+00   6.17022759340906E-12   0.00000000000000E+00   0.00000000000000E+00  -2.58385430994074E-11
     -1.70526489680072E-34  -2.58385430994074E-11   4.31489868439926E-18   0.00000000000000E+00   0.00000000000000E+00
      0.00000000000000E+00   0.00000000000000E+00   0.00000000000000E+00   0.00000000000000E+00   0.00000000000000E+00
      2.68918221746715E-18   0.00000000000000E+00   0.00000000000000E+00   0.00000000000000E+00   0.00000000000000E+00
     -7.63401065370993E-21   3.33022044484705E-34  -7.63401065370959E-21  -1.05146709795010E-17   1.04666666666667E-04
      1.04666660425903E-04   0.00000000000000E+00   0.00000000000000E+00   2.58385431070414E-11  -1.62495554804633E-34
      2.58385431070414E-11   3.51059007763462E-18
      3.29600000000000E-03
      0.00000000000000E+00   9.69747520174112E-12   0.00000000000000E+00   0.00000000000000E+00  -4.06092472787617E-11
     -1.44085906580719E-34  -4.06092472787617E-11   4.31488064027967E-18   0.00000000000000E+00   0.00000000000000E+00
      0.00000000000000E+00   0.00000000000000E+00   0.00000000000000E+00   0.00000000000000E+00   0.00000000000000E+00
      2.68851809609375E-18   0.00000000000000E+00   0.00000000000000E+00   0.00000000000000E+00   0.00000000000000E+00
      4.71646077458512E-21   3.46110081416855E-34   4.71646077458547E-21  -1.05146418768507E-17   1.64800000000000E-04
      1.64799990191684E-04   0.00000000000000E+00   0.00000000000000E+00   4.06092472740453E-11  -2.02024174836136E-34
      4.06092472740453E-11   3.51124314047725E-18
      4.61893333333333E-03
      0.00000000000000E+00   1.35620784346610E-11   0.00000000000000E+00   0.00000000000000E+00  -5.67925354867190E-11
     -1.39779273050351E-34  -5.67925354867190E-11   4.31486079218146E-18   0.00000000000000E+00   0.00000000000000E+00
      0.00000000000000E+00   0.00000000000000E+00   0.00000000000000E+00   0.00000000000000E+00   0.00000000000000E+00
      2.68778757897762E-18   0.00000000000000E+00   0.00000000000000E+00   0.00000000000000E+00   0.00000000000000E+00
     -3.26443876196222E-20   3.13711149810357E-34  -3.26443876196219E-20  -1.05146099006554E-17   2.30946666666667E-04
      2.30946652949593E-04   0.00000000000000E+00   0.00000000000000E+00   5.67925355193633E-11  -1.73931876760006E-34
      5.67925355193633E-11   3.51196152949633E-18
      6.07416000000000E-03
      0.00000000000000E+00   1.77942578124645E-11   0.00000000000000E+00   0.00000000000000E+00  -7.45150126434701E-11
     -1.40384071580407E-34  -7.45150126434701E-11   4.31483895979869E-18   0.00000000000000E+00   0.00000000000000E+00
      0.00000000000000E+00   0.00000000000000E+00   0.00000000000000E+00   0.00000000000000E+00   0.00000000000000E+00
      2.68698402996523E-18   0.00000000000000E+00   0.00000000000000E+00   0.00000000000000E+00   0.00000000000000E+00
     -2.31841740952419E-20   3.31387446681083E-34  -2.31841740952416E-20  -1.05145747712297E-17   3.03708000000000E-04
      3.03707982002388E-04   0.00000000000000E+00   0.00000000000000E+00   7.45150126666542E-11  -1.91003375100675E-34
      7.45150126666542E-11   3.51275178146580E-18
      7.67490933333333E-03
      0.00000000000000E+00   2.24265858010705E-11   0.00000000000000E+00   0.00000000000000E+00  -9.39129731637496E-11
     -1.45843318928659E-34  -9.39129731637496E-11   4.31481494481387E-18   0.00000000000000E+00   0.00000000000000E+00
      0.00000000000000E+00   0.00000000000000E+00   0.00000000000000E+00   0.00000000000000E+00   0.00000000000000E+00
      2.68610014999860E-18   0.00000000000000E+00   0.00000000000000E+00   0.00000000000000E+00   0.00000000000000E+00
     -2.30938087715989E-20   3.16313065200795E-34  -2.30938087715986E-20  -1.05145361825161E-17   3.83745466666667E-04
      3.83745443983800E-04   0.00000000000000E+00   0.00000000000000E+00   9.39129731868434E-11  -1.70469746272136E-34
      9.39129731868434E-11   3.51362108770362E-18
      9.43573360000000E-03
      0.00000000000000E+00   2.74940147256182E-11   0.00000000000000E+00   0.00000000000000E+00  -1.15132715161332E-10
     -1.62258130051667E-34  -1.15132715161332E-10   4.31478852910091E-18   0.00000000000000E+00   0.00000000000000E+00
      0.00000000000000E+00   0.00000000000000E+00   0.00000000000000E+00   0.00000000000000E+00   0.00000000000000E+00
      2.68512791097262E-18   0.00000000000000E+00   0.00000000000000E+00   0.00000000000000E+00   0.00000000000000E+00
      2.64533086821043E-20   3.26414223707623E-34   2.64533086821047E-20  -1.05144937997800E-17   4.71786680000000E-04
      4.71786652191835E-04   0.00000000000000E+00   0.00000000000000E+00   1.15132715134879E-10  -1.64156093655956E-34
      1.15132715134879E-10   3.51457735970651E-18
      1.13726402933333E-02
      0.00000000000000E+00   3.30339154893264E-11   0.00000000000000E+00   0.00000000000000E+00  -1.38330785508287E-10
     -1.53436902531715E-34  -1.38330785508287E-10   4.31475947274900E-18   0.00000000000000E+00   0.00000000000000E+00
      0.00000000000000E+00   0.00000000000000E+00   0.00000000000000E+00   0.00000000000000E+00   0.00000000000000E+00
      2.68405848300512E-18   0.00000000000000E+00   0.00000000000000E+00   0.00000000000000E+00   0.00000000000000E+00
      6.25146310032574E-20   3.39338557267550E-34   6.25146310032577E-20  -1.05144472571381E-17   5.68632014666667E-04
      5.68631981255304E-04   0.00000000000000E+00   0.00000000000000E+00   1.38330785445772E-10  -1.85901654735835E-34
      1.38330785445772E-10   3.51562930138396E-18
      1.35032376560000E-02
      0.00000000000000E+00   3.90862207432312E-11   0.00000000000000E+00   0.00000000000000E+00  -1.63674104555612E-10
     -1.65814731323974E-34  -1.63674104555612E-10   4.31472751188995E-18   0.00000000000000E+00   0.00000000000000E+00
      0.00000000000000E+00   0.00000000000000E+00   0.00000000000000E+00   0.00000000000000E+00   0.00000000000000E+00
      2.68288215447390E-18   0.00000000000000E+00   0.00000000000000E+00   0.00000000000000E+00   0.00000000000000E+00
      6.89730651426853E-20   3.41470265196384E-34   6.89730651426857E-20  -1.05143961549255E-17   6.75161882800000E-04
      6.75161843267242E-04   0.00000000000000E+00   0.00000000000000E+00   1.63674104486639E-10  -1.75655533872410E-34
      1.63674104486639E-10   3.51678648856166E-18
      1.58468947549333E-02
      0.00000000000000E+00   4.56932366945184E-11   0.00000000000000E+00   0.00000000000000E+00  -1.91339941607311E-10
     -1.66289040376331E-34  -1.91339941607311E-10   4.31469235630930E-18   0.00000000000000E+00   0.00000000000000E+00
      0.00000000000000E+00   0.00000000000000E+00   0.00000000000000E+00   0.00000000000000E+00   0.00000000000000E+00
      2.68158824409861E-18   0.00000000000000E+00   0.00000000000000E+00   0.00000000000000E+00   0.00000000000000E+00
      8.06019733202796E-20   3.32539131727916E-34   8.06019733202800E-20  -1.05143400568968E-17   7.92344737746667E-04
      7.92344691531430E-04   0.00000000000000E+00   0.00000000000000E+00   1.91339941526709E-10  -1.66250091351586E-34
      1.91339941526709E-10   3.51805945648885E-18
      1.84249175637600E-02
      0.00000000000000E+00   5.28997817740682E-11   0.00000000000000E+00   0.00000000000000E+00  -2.21515692202513E-10
     -1.92733230692163E-34  -2.21515692202513E-10   4.31465368682029E-18   0.00000000000000E+00   0.00000000000000E+00
      0.00000000000000E+00   0.00000000000000E+00   0.00000000000000E+00   0.00000000000000E+00   0.00000000000000E+00
      2.68016500428352E-18   0.00000000000000E+00   0.00000000000000E+00   0.00000000000000E+00   0.00000000000000E+00
     -1.11178227498680E-17   3.63546440386474E-34  -1.11178227498680E-17  -1.05142784872644E-17   9.21245878188001E-04
      9.21245824683953E-04   0.00000000000000E+00   0.00000000000000E+00   2.21515703320336E-10  -1.70813209694311E-34
      2.21515703320336E-10   3.51945979616061E-18
      2.12607426534693E-02
      0.00000000000000E+00   6.07529417171556E-11   0.00000000000000E+00   0.00000000000000E+00  -2.54398405437918E-10
     -1.82357040991233E-34  -2.54398405437918E-10   4.31461115237648E-18   0.00000000000000E+00   0.00000000000000E+00
      0.00000000000000E+00   0.00000000000000E+00   0.00000000000000E+00   0.00000000000000E+00   0.00000000000000E+00
      2.67859951485650E-18   0.00000000000000E+00   0.00000000000000E+00   0.00000000000000E+00   0.00000000000000E+00
      1.49743516852679E-18   3.55290293374589E-34   1.49743516852679E-18  -1.05142109275836E-17   1.06303713267347E-03
      1.06303707122663E-03   0.00000000000000E+00   0.00000000000000E+00   2.54398403940483E-10  -1.72933252383356E-34
      2.54398403940483E-10   3.52100026035060E-18
      2.43801502521496E-02
      0.00000000000000E+00   6.93019281945903E-11   0.00000000000000E+00   0.00000000000000E+00  -2.90193992095795E-10
     -1.44711654826598E-34  -2.90193992095795E-10   4.31456436689781E-18   0.00000000000000E+00   0.00000000000000E+00
      0.00000000000000E+00   0.00000000000000E+00   0.00000000000000E+00   0.00000000000000E+00   0.00000000000000E+00
      2.67687756625664E-18   0.00000000000000E+00   0.00000000000000E+00   0.00000000000000E+00   0.00000000000000E+00
      4.85229616255651E-19   3.17240992905767E-34   4.85229616255652E-19  -1.05141368134947E-17   1.21900751260748E-03
      1.21900744251408E-03   0.00000000000000E+00   0.00000000000000E+00   2.90193991610566E-10  -1.72529338079169E-34
      2.90193991610566E-10   3.52269488034026E-18
      2.78114986106979E-02
      0.00000000000000E+00   7.85978077806986E-11   0.00000000000000E+00   0.00000000000000E+00  -3.29116056716304E-10
     -1.91199614297518E-34  -3.29116056716304E-10   4.31451290578196E-18   0.00000000000000E+00   0.00000000000000E+00
      0.00000000000000E+00   0.00000000000000E+00   0.00000000000000E+00   0.00000000000000E+00   0.00000000000000E+00
      2.67498353113305E-18   0.00000000000000E+00   0.00000000000000E+00   0.00000000000000E+00   0.00000000000000E+00
      7.73670216623754E-19   3.68732487184049E-34   7.73670216623754E-19  -1.05140555313492E-17   1.39057493053490E-03
      1.39057485103955E-03   0.00000000000000E+00   0.00000000000000E+00   3.29116055942634E-10  -1.77532872886530E-34
      3.29116055942634E-10   3.52455909443418E-18
      3.15859818051010E-02
      0.00000000000000E+00   8.86931174660401E-11   0.00000000000000E+00   0.00000000000000E+00  -3.71384255038016E-10
     -1.30196825837996E-34  -3.71384255038016E-10   4.31445630206920E-18   0.00000000000000E+00   0.00000000000000E+00
      0.00000000000000E+00   0.00000000000000E+00   0.00000000000000E+00   0.00000000000000E+00   0.00000000000000E+00
      2.67290022320576E-18   0.00000000000000E+00   0.00000000000000E+00   0.00000000000000E+00   0.00000000000000E+00
      1.19260515522888E-18   3.03208981454956E-34   1.19260515522888E-18  -1.05139664147349E-17   1.57929909025505E-03
      1.57929900054921E-03   0.00000000000000E+00   0.00000000000000E+00   3.71384253845411E-10  -1.73012155616960E-34
      3.71384253845411E-10   3.52660988945995E-18
      3.57379133189445E-02
      0.00000000000000E+00   9.96413216929329E-11   0.00000000000000E+00   0.00000000000000E+00  -4.17222148893783E-10
     -1.56847725504710E-34  -4.17222148893783E-10   4.31439404222748E-18   0.00000000000000E+00   0.00000000000000E+00
      0.00000000000000E+00   0.00000000000000E+00   0.00000000000000E+00   0.00000000000000E+00   0.00000000000000E+00
      2.67060874213238E-18   0.00000000000000E+00   0.00000000000000E+00   0.00000000000000E+00   0.00000000000000E+00
      1.72647016221765E-18   3.38494496529700E-34   1.72647016221765E-18  -1.05138687409391E-17   1.78689566594722E-03
      1.78689556516831E-03   0.00000000000000E+00   0.00000000000000E+00   4.17222147167313E-10  -1.81646771024990E-34
      4.17222147167313E-10   3.52886595657919E-18
      4.03050379841723E-02
      0.00000000000000E+00   1.11496150533082E-10   0.00000000000000E+00   0.00000000000000E+00  -4.66854311616721E-10
     -1.74774701960339E-34  -4.66854311616721E-10   4.31432556152004E-18   0.00000000000000E+00   0.00000000000000E+00
      0.00000000000000E+00   0.00000000000000E+00   0.00000000000000E+00   0.00000000000000E+00   0.00000000000000E+00
      2.66808830303326E-18   0.00000000000000E+00   0.00000000000000E+00   0.00000000000000E+00   0.00000000000000E+00
     -1.73058289313961E-17   3.47157915850703E-34  -1.73058289313961E-17  -1.05137617274274E-17   2.01525189920861E-03
      2.01525178643968E-03   0.00000000000000E+00   0.00000000000000E+00   4.66854328922550E-10  -1.72383213890364E-34
      4.66854328922550E-10   3.53134786287412E-18
      4.53288751159228E-02
      0.00000000000000E+00   1.24310751474418E-10   0.00000000000000E+00   0.00000000000000E+00  -5.20502758720061E-10
     -1.57511827491161E-34  -5.20502758720061E-10   4.31425023891443E-18   0.00000000000000E+00   0.00000000000000E+00
      0.00000000000000E+00   0.00000000000000E+00   0.00000000000000E+00   0.00000000000000E+00   0.00000000000000E+00
      2.66531604912793E-18   0.00000000000000E+00   0.00000000000000E+00   0.00000000000000E+00   0.00000000000000E+00
      3.87226338925811E-18   3.14997829324766E-34   3.87226338925811E-18  -1.05136445283640E-17   2.26644375579614E-03
      2.26644363006651E-03   0.00000000000000E+00   0.00000000000000E+00   5.20502754847798E-10  -1.57486001833605E-34
      5.20502754847798E-10   3.53407824032164E-18
      5.08550959608485E-02
      0.00000000000000E+00   1.38136568375041E-10   0.00000000000000E+00   0.00000000000000E+00  -5.78382446236971E-10
     -1.63433080672600E-34  -5.78382446236971E-10   4.31416739148835E-18   0.00000000000000E+00   0.00000000000000E+00
      0.00000000000000E+00   0.00000000000000E+00   0.00000000000000E+00   0.00000000000000E+00   0.00000000000000E+00
      2.66226684586706E-18   0.00000000000000E+00   0.00000000000000E+00   0.00000000000000E+00   0.00000000000000E+00
      1.70539765932185E-17   3.21202988081204E-34   1.70539765932185E-17  -1.05135162313004E-17   2.54275479804242E-03
      2.54275465832936E-03   0.00000000000000E+00   0.00000000000000E+00   5.78382429182995E-10  -1.57769907408604E-34
      5.78382429182995E-10   3.53708199394496E-18
      5.69339388902666E-02
      0.00000000000000E+00   1.53022133975055E-10   0.00000000000000E+00   0.00000000000000E+00  -6.40695726957300E-10
     -1.61620785366322E-34  -6.40695726957300E-10   4.31407626828278E-18   0.00000000000000E+00   0.00000000000000E+00
      0.00000000000000E+00   0.00000000000000E+00   0.00000000000000E+00   0.00000000000000E+00   0.00000000000000E+00
      2.65891305472595E-18   0.00000000000000E+00   0.00000000000000E+00   0.00000000000000E+00   0.00000000000000E+00
      8.48425099286429E-18   3.35832762636546E-34   8.48425099286429E-18  -1.05133758541181E-17   2.84669694451333E-03
      2.84669678974508E-03   0.00000000000000E+00   0.00000000000000E+00   6.40695718473049E-10  -1.74211977270223E-34
      6.40695718473049E-10   3.54038653110935E-18
      6.36206661126266E-02
      0.00000000000000E+00   1.69011368968057E-10   0.00000000000000E+00   0.00000000000000E+00  -7.07625919773634E-10
     -1.48262405029701E-34  -7.07625919773634E-10   4.31397604354774E-18   0.00000000000000E+00   0.00000000000000E+00
      0.00000000000000E+00   0.00000000000000E+00   0.00000000000000E+00   0.00000000000000E+00   0.00000000000000E+00
      2.65522428466588E-18   0.00000000000000E+00   0.00000000000000E+00   0.00000000000000E+00   0.00000000000000E+00
      2.93968752594783E-17   3.20601840897849E-34   2.93968752594783E-17  -1.05132223423477E-17   3.18103330563133E-03
      3.18103313469168E-03   0.00000000000000E+00   0.00000000000000E+00   7.07625890376759E-10  -1.72339435868147E-34
      7.07625890376759E-10   3.54402201413409E-18
      7.09760660572226E-02
      0.00000000000000E+00   1.86141849557267E-10   0.00000000000000E+00   0.00000000000000E+00  -7.79329313424020E-10
     -1.57767084279558E-34  -7.79329313424020E-10   4.31386580932228E-18   0.00000000000000E+00   0.00000000000000E+00
      0.00000000000000E+00   0.00000000000000E+00   0.00000000000000E+00   0.00000000000000E+00   0.00000000000000E+00
      2.65116711909742E-18   0.00000000000000E+00   0.00000000000000E+00   0.00000000000000E+00   0.00000000000000E+00
      1.83133710847558E-17   3.36522010950863E-34   1.83133710847558E-17  -1.05130545670484E-17   3.54880330286113E-03
      3.54880311459588E-03   0.00000000000000E+00   0.00000000000000E+00   7.79329295110648E-10  -1.78754926671305E-34
      7.79329295110648E-10   3.54802163862868E-18
      7.90670059962782E-02
      0.00000000000000E+00   2.04442550956395E-10   0.00000000000000E+00   0.00000000000000E+00  -8.55926338776656E-10
     -1.67450188184929E-34  -8.55926338776656E-10   4.31374456728277E-18   0.00000000000000E+00   0.00000000000000E+00
      0.00000000000000E+00   0.00000000000000E+00   0.00000000000000E+00   0.00000000000000E+00   0.00000000000000E+00
      2.64670481595650E-18   0.00000000000000E+00   0.00000000000000E+00   0.00000000000000E+00   0.00000000000000E+00
      2.67829948411603E-17   3.29614236053649E-34   2.67829948411603E-17  -1.05128713234646E-17   3.95335029981391E-03
      3.95335009303957E-03   0.00000000000000E+00   0.00000000000000E+00   8.55926311993661E-10  -1.62164047868720E-34
      8.55926311993661E-10   3.55242194022532E-18
      8.79670399292394E-02
      0.00000000000000E+00   2.23931424309374E-10   0.00000000000000E+00   0.00000000000000E+00  -9.37491016439208E-10
     -1.26248141369057E-34  -9.37491016439208E-10   4.31361121978852E-18   0.00000000000000E+00   0.00000000000000E+00
      0.00000000000000E+00   0.00000000000000E+00   0.00000000000000E+00   0.00000000000000E+00   0.00000000000000E+00
      2.64179697827403E-18   0.00000000000000E+00   0.00000000000000E+00   0.00000000000000E+00   0.00000000000000E+00
      2.60383145284641E-17   2.77474343250609E-34   2.60383145284641E-17  -1.05126713306982E-17   4.39835199646197E-03
      4.39835176997689E-03   0.00000000000000E+00   0.00000000000000E+00   9.37490990400894E-10  -1.51226201881552E-34
      9.37490990400894E-10   3.55726313263561E-18
      9.77570772554967E-02
      0.00000000000000E+00   2.44612588222360E-10   0.00000000000000E+00   0.00000000000000E+00  -1.02403936518246E-09
     -1.83792971074354E-34  -1.02403936518246E-09   4.31346456004637E-18   0.00000000000000E+00   0.00000000000000E+00
      0.00000000000000E+00   0.00000000000000E+00   0.00000000000000E+00   0.00000000000000E+00   0.00000000000000E+00
      2.63639919237830E-18   0.00000000000000E+00   0.00000000000000E+00   0.00000000000000E+00   0.00000000000000E+00
      4.22413104201327E-17   3.44742477667386E-34   4.22413104201327E-17  -1.05124532327174E-17   4.88785386277484E-03
      4.88785361537323E-03   0.00000000000000E+00   0.00000000000000E+00   1.02403932294115E-09  -1.60949506593032E-34
      1.02403932294115E-09   3.56258948029269E-18
      1.07757077255497E-01
      0.00000000000000E+00   2.64942364976053E-10   0.00000000000000E+00   0.00000000000000E+00  -1.10911072434371E-09
     -1.39883283819524E-34  -1.10911072434371E-09   4.31331477907664E-18   0.00000000000000E+00   0.00000000000000E+00
      0.00000000000000E+00   0.00000000000000E+00   0.00000000000000E+00   0.00000000000000E+00   0.00000000000000E+00
      2.63088653894925E-18   0.00000000000000E+00   0.00000000000000E+00   0.00000000000000E+00   0.00000000000000E+00
      5.53168077255845E-17   2.69353965429186E-34   5.53168077255845E-17  -1.05122324921445E-17   5.38785386277483E-03
      5.38785359481216E-03   0.00000000000000E+00   0.00000000000000E+00   1.10911066902691E-09  -1.29470681609662E-34
      1.10911066902691E-09   3.56803117411859E-18
      1.17757077255497E-01
      0.00000000000000E+00   2.84493292955594E-10   0.00000000000000E+00   0.00000000000000E+00  -1.19091667773733E-09
     -1.88030901111782E-34  -1.19091667773733E-09   4.31316502225336E-18   0.00000000000000E+00   0.00000000000000E+00
      0.00000000000000E+00   0.00000000000000E+00   0.00000000000000E+00   0.00000000000000E+00   0.00000000000000E+00
      2.62537478389758E-18   0.00000000000000E+00   0.00000000000000E+00   0.00000000000000E+00   0.00000000000000E+00
      6.56109993664661E-17   3.44634382310211E-34   6.56109993664661E-17  -1.05120137937648E-17   5.88785386277483E-03
      5.88785357503886E-03   0.00000000000000E+00   0.00000000000000E+00   1.19091661212634E-09  -1.56603481198429E-34
      1.19091661212634E-09   3.57347398761382E-18
      1.27757077255497E-01
      0.00000000000000E+00   3.03289865891783E-10   0.00000000000000E+00   0.00000000000000E+00  -1.26956039807337E-09
     -1.57913124819469E-34  -1.26956039807337E-09   4.31301528934205E-18   0.00000000000000E+00   0.00000000000000E+00
      0.00000000000000E+00   0.00000000000000E+00   0.00000000000000E+00   0.00000000000000E+00   0.00000000000000E+00
      2.61986391962194E-18   0.00000000000000E+00   0.00000000000000E+00   0.00000000000000E+00   0.00000000000000E+00
      6.45581560218619E-17   2.88119104104740E-34   6.45581560218619E-17  -1.05117971232614E-17   6.38785386277483E-03
      6.38785355602855E-03   0.00000000000000E+00   0.00000000000000E+00   1.26956033351521E-09  -1.30205979285271E-34
      1.26956033351521E-09   3.57891791429740E-18
      1.37757077255497E-01
      0.00000000000000E+00   3.21356313686910E-10   0.00000000000000E+00   0.00000000000000E+00  -1.34514381222633E-09
     -1.35373533979935E-34  -1.34514381222633E-09   4.31286558010753E-18   0.00000000000000E+00   0.00000000000000E+00
      0.00000000000000E+00   0.00000000000000E+00   0.00000000000000E+00   0.00000000000000E+00   0.00000000000000E+00
      2.61435393859250E-18   0.00000000000000E+00   0.00000000000000E+00   0.00000000000000E+00   0.00000000000000E+00
      6.34739720741678E-17   2.67204642009951E-34   6.34739720741678E-17  -1.05115824664373E-17   6.88785386277483E-03
      6.88785353775669E-03   0.00000000000000E+00   0.00000000000000E+00   1.34514374875235E-09  -1.31831108030016E-34
      1.34514374875235E-09   3.58436294773730E-18
      1.47757077255497E-01
      0.00000000000000E+00   3.38716478154226E-10   0.00000000000000E+00   0.00000000000000E+00  -1.41776728236665E-09
     -1.54540075891332E-34  -1.41776728236665E-09   4.31271589431428E-18   0.00000000000000E+00   0.00000000000000E+00
      0.00000000000000E+00   0.00000000000000E+00   0.00000000000000E+00   0.00000000000000E+00   0.00000000000000E+00
      2.60884483335112E-18   0.00000000000000E+00   0.00000000000000E+00   0.00000000000000E+00   0.00000000000000E+00
      6.24504798123750E-17   3.09764819047307E-34   6.24504798123750E-17  -1.05113698092149E-17   7.38785386277483E-03
      7.38785352019917E-03   0.00000000000000E+00   0.00000000000000E+00   1.41776721991617E-09  -1.55224743155975E-34
      1.41776721991617E-09   3.58980908154951E-18
      1.57757077255497E-01
      0.00000000000000E+00   3.55393804914001E-10   0.00000000000000E+00   0.00000000000000E+00  -1.48752941070826E-09
     -1.52320031324658E-34  -1.48752941070826E-09   4.31256623172568E-18   0.00000000000000E+00   0.00000000000000E+00
      0.00000000000000E+00   0.00000000000000E+00   0.00000000000000E+00   0.00000000000000E+00   0.00000000000000E+00
      2.60333659648003E-18   0.00000000000000E+00   0.00000000000000E+00   0.00000000000000E+00   0.00000000000000E+00
      6.13979151590811E-17   2.93964312072132E-34   6.13979151590811E-17  -1.05111591375872E-17   7.88785386277484E-03
      7.88785350333230E-03   0.00000000000000E+00   0.00000000000000E+00   1.48752934931035E-09  -1.41644280747475E-34
      1.48752934931035E-09   3.59525630938150E-18
      1.67757077255497E-01
      0.00000000000000E+00   3.71411251548782E-10   0.00000000000000E+00   0.00000000000000E+00  -1.55452684039878E-09
     -1.49713330495489E-34  -1.55452684039878E-09   4.31241659210498E-18   0.00000000000000E+00   0.00000000000000E+00
      0.00000000000000E+00   0.00000000000000E+00   0.00000000000000E+00   0.00000000000000E+00   0.00000000000000E+00
      2.59782922061985E-18   0.00000000000000E+00   0.00000000000000E+00   0.00000000000000E+00   0.00000000000000E+00
      6.04267056943129E-17   2.84986149163331E-34   6.04267056943129E-17  -1.05109504376439E-17   8.38785386277484E-03
      8.38785348713284E-03   0.00000000000000E+00   0.00000000000000E+00   1.55452677997208E-09  -1.35272818667843E-34
      1.55452677997208E-09   3.60070462491906E-18
      1.77757077255497E-01
      0.00000000000000E+00   3.86791301109974E-10   0.00000000000000E+00   0.00000000000000E+00  -1.61885407241017E-09
     -1.84371494565271E-34  -1.61885407241017E-09   4.31226697521662E-18   0.00000000000000E+00   0.00000000000000E+00
      0.00000000000000E+00   0.00000000000000E+00   0.00000000000000E+00   0.00000000000000E+00   0.00000000000000E+00
      2.59232269849754E-18   0.00000000000000E+00   0.00000000000000E+00   0.00000000000000E+00   0.00000000000000E+00
      5.95188777025054E-17   3.18171852669439E-34   5.95188777025054E-17  -1.05107436956186E-17   8.88785386277484E-03
      8.88785347157806E-03   0.00000000000000E+00   0.00000000000000E+00   1.61885401289129E-09  -1.33800358104168E-34
      1.61885401289129E-09   3.60615402190446E-18
      1.87757077255497E-01
      0.00000000000000E+00   4.01555900888016E-10   0.00000000000000E+00   0.00000000000000E+00  -1.68060350111386E-09
     -1.39804907058259E-34  -1.68060350111386E-09   4.31211738082389E-18   0.00000000000000E+00   0.00000000000000E+00
      0.00000000000000E+00   0.00000000000000E+00   0.00000000000000E+00   0.00000000000000E+00   0.00000000000000E+00
      2.58681702286479E-18   0.00000000000000E+00   0.00000000000000E+00   0.00000000000000E+00   0.00000000000000E+00
      5.85635690859397E-17   2.74042992097541E-34   5.85635690859397E-17  -1.05105388977962E-17   9.38785386277484E-03
      9.38785345664576E-03   0.00000000000000E+00   0.00000000000000E+00   1.68060344255029E-09  -1.34238085039282E-34
      1.68060344255029E-09   3.61160449410752E-18
      1.97757077255497E-01
      0.00000000000000E+00   4.15726487624660E-10   0.00000000000000E+00   0.00000000000000E+00  -1.73986523052635E-09