DF-ISE text

Info {
  version   = 1.0
  type      = xyplot
  datasets  = [
    "time"
    "source OuterVoltage" "source InnerVoltage" "source QuasiFermiPotential" "source DisplacementCurrent" "source eCurrent"
    "source hCurrent" "source TotalCurrent" "source Charge" "gate OuterVoltage" "gate InnerVoltage"
    "gate QuasiFermiPotential" "gate DisplacementCurrent" "gate eCurrent" "gate hCurrent" "gate TotalCurrent"
    "gate Charge" "substrate OuterVoltage" "substrate InnerVoltage" "substrate QuasiFermiPotential" "substrate DisplacementCurrent"
    "substrate eCurrent" "substrate hCurrent" "substrate TotalCurrent" "substrate Charge" "drain OuterVoltage"
    "drain InnerVoltage" "drain QuasiFermiPotential" "drain DisplacementCurrent" "drain eCurrent" "drain hCurrent"
    "drain TotalCurrent" "drain Charge" ]
  functions = [
    Time
    OuterVoltage InnerVoltage QuasiFermiPotential DisplacementCurrent eCurrent
    hCurrent TotalCurrent Charge OuterVoltage InnerVoltage
    QuasiFermiPotential DisplacementCurrent eCurrent hCurrent TotalCurrent
    Charge OuterVoltage InnerVoltage QuasiFermiPotential DisplacementCurrent
    eCurrent hCurrent TotalCurrent Charge OuterVoltage
    InnerVoltage QuasiFermiPotential DisplacementCurrent eCurrent hCurrent
    TotalCurrent Charge ]
}

Data {
      0.00000000000000E+00
      0.00000000000000E+00   0.00000000000000E+00   0.00000000000000E+00   0.00000000000000E+00   1.07970821536261E-21
     -1.58674843494698E-34   1.07970821536245E-21   4.71729942497148E-18   0.00000000000000E+00   0.00000000000000E+00
      0.00000000000000E+00   0.00000000000000E+00   0.00000000000000E+00   0.00000000000000E+00   0.00000000000000E+00
      2.79448623814675E-18   0.00000000000000E+00   0.00000000000000E+00   0.00000000000000E+00   0.00000000000000E+00
     -2.43982553276179E-21   3.79675137625094E-34  -2.43982553276141E-21  -1.13319676551217E-17   0.00000000000000E+00
      0.00000000000000E+00   0.00000000000000E+00   0.00000000000000E+00   1.36011731739918E-21  -2.21000294130396E-34
      1.36011731739896E-21   3.82018199200347E-18
      0.00000000000000E+00
      0.00000000000000E+00   0.00000000000000E+00   0.00000000000000E+00   0.00000000000000E+00  -2.75452910773765E-20
     -1.66699402091548E-34  -2.75452910773767E-20   4.71538705666138E-18   0.00000000000000E+00   0.00000000000000E+00
      0.00000000000000E+00   0.00000000000000E+00   0.00000000000000E+00   0.00000000000000E+00   0.00000000000000E+00
      2.78834016702898E-18   0.00000000000000E+00   0.00000000000000E+00   0.00000000000000E+00   0.00000000000000E+00
      3.06888203855663E-20   3.65136103373040E-34   3.06888203855666E-20  -1.13225546881569E-17   0.00000000000000E+00
      0.00000000000000E+00   0.00000000000000E+00   0.00000000000000E+00  -3.14352930818975E-21  -1.98436701281492E-34
     -3.14352930818994E-21   3.81882746446650E-18
      1.00000000000000E-03
      0.00000000000000E+00   2.79271339321163E-12   0.00000000000000E+00   0.00000000000000E+00  -1.31320327313282E-11
     -1.83005662807780E-34  -1.31320327313282E-11   4.71536945819256E-18   0.00000000000000E+00   0.00000000000000E+00
      0.00000000000000E+00   0.00000000000000E+00   0.00000000000000E+00   0.00000000000000E+00   0.00000000000000E+00
      2.78775366142444E-18   0.00000000000000E+00   0.00000000000000E+00   0.00000000000000E+00   0.00000000000000E+00
     -1.47331415590688E-19   3.59368139221605E-34  -1.47331415590688E-19  -1.13225302871330E-17   5.00000000000000E-05
      4.99999971814620E-05   0.00000000000000E+00   0.00000000000000E+00   1.31320328786596E-11  -1.76362476413825E-34
      1.31320328786596E-11   3.81940716751597E-18
      2.09333333333333E-03
      0.00000000000000E+00   5.83672091910134E-12   0.00000000000000E+00   0.00000000000000E+00  -2.74456883231521E-11
     -1.76508565386632E-34  -2.74456883231521E-11   4.71535021751788E-18   0.00000000000000E+00   0.00000000000000E+00
      0.00000000000000E+00   0.00000000000000E+00   0.00000000000000E+00   0.00000000000000E+00   0.00000000000000E+00
      2.78711242735870E-18   0.00000000000000E+00   0.00000000000000E+00   0.00000000000000E+00   0.00000000000000E+00
     -2.92957905181994E-20   3.45832828210772E-34  -2.92957905181990E-20  -1.13225036352802E-17   1.04666666666667E-04
      1.04666660775982E-04   0.00000000000000E+00   0.00000000000000E+00   2.74456883524478E-11  -1.69324262824140E-34
      2.74456883524478E-11   3.82004099040358E-18
      3.29600000000000E-03
      0.00000000000000E+00   9.17340296408003E-12   0.00000000000000E+00   0.00000000000000E+00  -4.31355764963388E-11
     -1.94200072114479E-34  -4.31355764963388E-11   4.71532905316121E-18   0.00000000000000E+00   0.00000000000000E+00
      0.00000000000000E+00   0.00000000000000E+00   0.00000000000000E+00   0.00000000000000E+00   0.00000000000000E+00
      2.78640708442599E-18   0.00000000000000E+00   0.00000000000000E+00   0.00000000000000E+00   0.00000000000000E+00
      1.78219240000736E-20   3.97004940810204E-34   1.78219240000740E-20  -1.13224743503088E-17   1.64800000000000E-04
      1.64799990741797E-04   0.00000000000000E+00   0.00000000000000E+00   4.31355764785169E-11  -2.02804868695725E-34
      4.31355764785169E-11   3.82073821272157E-18
      4.61893333333333E-03
      0.00000000000000E+00   1.28292887938441E-11   0.00000000000000E+00   0.00000000000000E+00  -6.03263699046047E-11
     -1.86001312976758E-34  -6.03263699046047E-11   4.71530577283648E-18   0.00000000000000E+00   0.00000000000000E+00
      0.00000000000000E+00   0.00000000000000E+00   0.00000000000000E+00   0.00000000000000E+00   0.00000000000000E+00
      2.78563122477502E-18   0.00000000000000E+00   0.00000000000000E+00   0.00000000000000E+00   0.00000000000000E+00
      2.59363561035229E-21   3.83563850390652E-34   2.59363561035267E-21  -1.13224421756067E-17   2.30946666666667E-04
      2.30946653718793E-04   0.00000000000000E+00   0.00000000000000E+00   6.03263699020110E-11  -1.97562537413894E-34
      6.03263699020110E-11   3.82150517799519E-18
      6.07416000000000E-03
      0.00000000000000E+00   1.68330079726088E-11   0.00000000000000E+00   0.00000000000000E+00  -7.91526988955689E-11
     -1.58383459732795E-34  -7.91526988955689E-11   4.71528016504595E-18   0.00000000000000E+00   0.00000000000000E+00
      0.00000000000000E+00   0.00000000000000E+00   0.00000000000000E+00   0.00000000000000E+00   0.00000000000000E+00
      2.78477780040054E-18   0.00000000000000E+00   0.00000000000000E+00   0.00000000000000E+00   0.00000000000000E+00
      9.46372233714425E-21   3.38067726892320E-34   9.46372233714459E-21  -1.13224068302962E-17   3.03708000000000E-04
      3.03707983011419E-04   0.00000000000000E+00   0.00000000000000E+00   7.91526988861051E-11  -1.79684267159525E-34
      7.91526988861051E-11   3.82234886484974E-18
      7.67490933333333E-03
      0.00000000000000E+00   2.12154004035008E-11   0.00000000000000E+00   0.00000000000000E+00  -9.97595214472239E-11
     -1.77054729759244E-34  -9.97595214472239E-11   4.71525199716270E-18   0.00000000000000E+00   0.00000000000000E+00
      0.00000000000000E+00   0.00000000000000E+00   0.00000000000000E+00   0.00000000000000E+00   0.00000000000000E+00
      2.78383905925854E-18   0.00000000000000E+00   0.00000000000000E+00   0.00000000000000E+00   0.00000000000000E+00
      2.22938770406286E-20   3.89772195765646E-34   2.22938770406290E-20  -1.13223680070970E-17   3.83745466666667E-04
      3.83745445255219E-04   0.00000000000000E+00   0.00000000000000E+00   9.97595214249300E-11  -2.12717466006402E-34
      9.97595214249300E-11   3.82327695067575E-18
      9.43573360000000E-03
      0.00000000000000E+00   2.60095561857083E-11   0.00000000000000E+00   0.00000000000000E+00  -1.22302467014074E-10
     -1.89089559052702E-34  -1.22302467014074E-10   4.71522101332191E-18   0.00000000000000E+00   0.00000000000000E+00
      0.00000000000000E+00   0.00000000000000E+00   0.00000000000000E+00   0.00000000000000E+00   0.00000000000000E+00
      2.78280647501975E-18   0.00000000000000E+00   0.00000000000000E+00   0.00000000000000E+00   0.00000000000000E+00
      5.94881986199022E-20   4.02636175902602E-34   5.94881986199026E-20  -1.13223253700346E-17   4.71786680000000E-04
      4.71786653750127E-04   0.00000000000000E+00   0.00000000000000E+00   1.22302466954586E-10  -2.13546616849900E-34
      1.22302466954586E-10   3.82429788169297E-18
      1.13726402933333E-02
      0.00000000000000E+00   3.12509065927586E-11   0.00000000000000E+00   0.00000000000000E+00  -1.46948102062433E-10
     -1.95287388950004E-34  -1.46948102062433E-10   4.71518693210252E-18   0.00000000000000E+00   0.00000000000000E+00
      0.00000000000000E+00   0.00000000000000E+00   0.00000000000000E+00   0.00000000000000E+00   0.00000000000000E+00
      2.78167066983081E-18   0.00000000000000E+00   0.00000000000000E+00   0.00000000000000E+00   0.00000000000000E+00
      7.28464965075928E-20   3.86926674745839E-34   7.28464965075932E-20  -1.13222785519925E-17   5.68632014666667E-04
      5.68631983127031E-04   0.00000000000000E+00   0.00000000000000E+00   1.46948101989587E-10  -1.91639285795835E-34
      1.46948101989587E-10   3.82542095005915E-18
      1.35032376560000E-02
      0.00000000000000E+00   3.69772578644496E-11   0.00000000000000E+00   0.00000000000000E+00  -1.73874070233844E-10
     -2.12305259821428E-34  -1.73874070233844E-10   4.71514944397758E-18   0.00000000000000E+00   0.00000000000000E+00
      0.00000000000000E+00   0.00000000000000E+00   0.00000000000000E+00   0.00000000000000E+00   0.00000000000000E+00
      2.78042132939170E-18   0.00000000000000E+00   0.00000000000000E+00   0.00000000000000E+00   0.00000000000000E+00
      1.56532240279397E-19   4.18240704409163E-34   1.56532240279397E-19  -1.13222271521062E-17   6.75161882800000E-04
      6.75161845481170E-04   0.00000000000000E+00   0.00000000000000E+00   1.73874070077312E-10  -2.05935444587734E-34
      1.73874070077312E-10   3.82665637873697E-18
      1.58468947549333E-02
      0.00000000000000E+00   4.32287582813780E-11   0.00000000000000E+00   0.00000000000000E+00  -2.03269094609186E-10
     -1.74325460819007E-34  -2.03269094609186E-10   4.71510820851134E-18   0.00000000000000E+00   0.00000000000000E+00
      0.00000000000000E+00   0.00000000000000E+00   0.00000000000000E+00   0.00000000000000E+00   0.00000000000000E+00
      2.77904710958161E-18   0.00000000000000E+00   0.00000000000000E+00   0.00000000000000E+00   0.00000000000000E+00
      2.00885339018791E-19   3.67634737460351E-34   2.00885339018792E-19  -1.13221707329949E-17   7.92344737746667E-04
      7.92344694118662E-04   0.00000000000000E+00   0.00000000000000E+00   2.03269094408300E-10  -1.93309276641344E-34
      2.03269094408300E-10   3.82801541490191E-18
      1.84249175637600E-02
      0.00000000000000E+00   5.00478427115130E-11   0.00000000000000E+00   0.00000000000000E+00  -2.35332744674234E-10
     -1.55076940884914E-34  -2.35332744674234E-10   4.71506285127716E-18   0.00000000000000E+00   0.00000000000000E+00
      0.00000000000000E+00   0.00000000000000E+00   0.00000000000000E+00   0.00000000000000E+00   0.00000000000000E+00
      2.77753553381024E-18   0.00000000000000E+00   0.00000000000000E+00   0.00000000000000E+00   0.00000000000000E+00
      2.43652633658249E-19   3.34517611465247E-34   2.43652633658250E-19  -1.13221088178478E-17   9.21245878188001E-04
      9.21245827677992E-04   0.00000000000000E+00   0.00000000000000E+00   2.35332744430582E-10  -1.79440670580332E-34
      2.35332744430582E-10   3.82951043276040E-18
      2.12607426534693E-02
      0.00000000000000E+00   5.74792083493224E-11   0.00000000000000E+00   0.00000000000000E+00  -2.70274957581095E-10
     -1.90618764215161E-34  -2.70274957581095E-10   4.71501296046938E-18   0.00000000000000E+00   0.00000000000000E+00
      0.00000000000000E+00   0.00000000000000E+00   0.00000000000000E+00   0.00000000000000E+00   0.00000000000000E+00
      2.77587288016515E-18   0.00000000000000E+00   0.00000000000000E+00   0.00000000000000E+00   0.00000000000000E+00
      4.10011313124684E-19   3.64047858026313E-34   4.10011313124684E-19  -1.13220408873628E-17   1.06303713267347E-03
      1.06303707466357E-03   0.00000000000000E+00   0.00000000000000E+00   2.70274957171083E-10  -1.73429093811152E-34
      2.70274957171083E-10   3.83115504672826E-18
      2.43801502521496E-02
      0.00000000000000E+00   6.55695322498827E-11   0.00000000000000E+00   0.00000000000000E+00  -3.08315209661524E-10
     -1.92470980051745E-34  -3.08315209661524E-10   4.71495808317861E-18   0.00000000000000E+00   0.00000000000000E+00
      0.00000000000000E+00   0.00000000000000E+00   0.00000000000000E+00   0.00000000000000E+00   0.00000000000000E+00
      2.77404405736251E-18   0.00000000000000E+00   0.00000000000000E+00   0.00000000000000E+00   0.00000000000000E+00
      6.13231941730634E-19   3.50747295099826E-34   6.13231941730634E-19  -1.13219663765700E-17   1.21900751260748E-03
      1.21900744643268E-03   0.00000000000000E+00   0.00000000000000E+00   3.08315209048292E-10  -1.58276315048081E-34
      3.08315209048292E-10   3.83296423602889E-18
      2.78114986106979E-02
      0.00000000000000E+00   7.43673093008992E-11   0.00000000000000E+00   0.00000000000000E+00  -3.49681327850808E-10
     -1.86967060287985E-34  -3.49681327850808E-10   4.71489772129653E-18   0.00000000000000E+00   0.00000000000000E+00
      0.00000000000000E+00   0.00000000000000E+00   0.00000000000000E+00   0.00000000000000E+00   0.00000000000000E+00
      2.77203246837108E-18   0.00000000000000E+00   0.00000000000000E+00   0.00000000000000E+00   0.00000000000000E+00
      9.01249417722973E-19   4.01247816153844E-34   9.01249417722973E-19  -1.13218846715275E-17   1.39057493053490E-03
      1.39057485548125E-03   0.00000000000000E+00   0.00000000000000E+00   3.49681326949559E-10  -2.14280755865859E-34
      3.49681326949559E-10   3.83495448185992E-18
      3.15859818051010E-02
      0.00000000000000E+00   8.39224380549289E-11   0.00000000000000E+00   0.00000000000000E+00  -3.94607761309058E-10
     -1.70377563296053E-34  -3.94607761309058E-10   4.71483132701507E-18   0.00000000000000E+00   0.00000000000000E+00
      0.00000000000000E+00   0.00000000000000E+00   0.00000000000000E+00   0.00000000000000E+00   0.00000000000000E+00
      2.76981986053203E-18   0.00000000000000E+00   0.00000000000000E+00   0.00000000000000E+00   0.00000000000000E+00
     -4.79291845191188E-18   3.49511128876279E-34  -4.79291845191188E-18  -1.13217951059723E-17   1.57929909025505E-03
      1.57929900555826E-03   0.00000000000000E+00   0.00000000000000E+00   3.94607766101977E-10  -1.79133565580225E-34
      3.94607766101977E-10   3.83714391842517E-18
      3.57379133189445E-02
      0.00000000000000E+00   9.42857346454413E-11   0.00000000000000E+00   0.00000000000000E+00  -4.43333293710237E-10
     -1.83614549207171E-34  -4.43333293710237E-10   4.71475829787860E-18   0.00000000000000E+00   0.00000000000000E+00
      0.00000000000000E+00   0.00000000000000E+00   0.00000000000000E+00   0.00000000000000E+00   0.00000000000000E+00
      2.76738616081603E-18   0.00000000000000E+00   0.00000000000000E+00   0.00000000000000E+00   0.00000000000000E+00
     -1.28300067783499E-17   3.77403303868169E-34  -1.28300067783499E-17  -1.13216969579272E-17   1.78689566594722E-03
      1.78689557079172E-03   0.00000000000000E+00   0.00000000000000E+00   4.43333306540244E-10  -1.93788754660997E-34
      4.43333306540244E-10   3.83955249923254E-18
      4.03050379841723E-02
      0.00000000000000E+00   1.05508332330187E-10   0.00000000000000E+00   0.00000000000000E+00  -4.96098058323958E-10
     -1.54631970121250E-34  -4.96098058323958E-10   4.71467797134611E-18   0.00000000000000E+00   0.00000000000000E+00
      0.00000000000000E+00   0.00000000000000E+00   0.00000000000000E+00   0.00000000000000E+00   0.00000000000000E+00
      2.76470929477042E-18   0.00000000000000E+00   0.00000000000000E+00   0.00000000000000E+00   0.00000000000000E+00
      2.92750925804522E-18   3.61678227677806E-34   2.92750925804522E-18  -1.13215894463409E-17   2.01525189920861E-03
      2.01525179272723E-03   0.00000000000000E+00   0.00000000000000E+00   4.96098055396449E-10  -2.07046257556556E-34
      4.96098055396449E-10   3.84220218022437E-18
      4.53288751159228E-02
      0.00000000000000E+00   1.17640853155643E-10   0.00000000000000E+00   0.00000000000000E+00  -5.53139746891560E-10
     -2.32524367311099E-34  -5.53139746891560E-10   4.71458961881453E-18   0.00000000000000E+00   0.00000000000000E+00
      0.00000000000000E+00   0.00000000000000E+00   0.00000000000000E+00   0.00000000000000E+00   0.00000000000000E+00
      2.76176498755206E-18   0.00000000000000E+00   0.00000000000000E+00   0.00000000000000E+00   0.00000000000000E+00
      4.27123136129702E-18   4.34817190485903E-34   4.27123136129702E-18  -1.13214717278261E-17   2.26644375579614E-03
      2.26644363707066E-03   0.00000000000000E+00   0.00000000000000E+00   5.53139742620329E-10  -2.02292823174804E-34
      5.53139742620329E-10   3.84511712145953E-18
      5.08550959608485E-02
      0.00000000000000E+00   1.30732381202169E-10   0.00000000000000E+00   0.00000000000000E+00  -6.14688899522229E-10
     -1.89388257699623E-34  -6.14688899522229E-10   4.71449243905059E-18   0.00000000000000E+00   0.00000000000000E+00
      0.00000000000000E+00   0.00000000000000E+00   0.00000000000000E+00   0.00000000000000E+00   0.00000000000000E+00
      2.75852654529217E-18   0.00000000000000E+00   0.00000000000000E+00   0.00000000000000E+00   0.00000000000000E+00
      1.69154769478870E-17   3.92705307746077E-34   1.69154769478870E-17  -1.13213428935942E-17   2.54275479804242E-03
      2.54275466610506E-03   0.00000000000000E+00   0.00000000000000E+00   6.14688882606752E-10  -2.03317050046454E-34
      6.14688882606752E-10   3.84832390925147E-18
      5.69339388902666E-02
      0.00000000000000E+00   1.44829276400560E-10   0.00000000000000E+00   0.00000000000000E+00  -6.80963072940718E-10
     -1.81419419534177E-34  -6.80963072940718E-10   4.71438555097325E-18   0.00000000000000E+00   0.00000000000000E+00
      0.00000000000000E+00   0.00000000000000E+00   0.00000000000000E+00   0.00000000000000E+00   0.00000000000000E+00
      2.75496461486838E-18   0.00000000000000E+00   0.00000000000000E+00   0.00000000000000E+00   0.00000000000000E+00
      9.11686502804047E-18   3.49438404253259E-34   9.11686502804047E-18  -1.13212019667033E-17   2.84669694451333E-03
      2.84669679834958E-03   0.00000000000000E+00   0.00000000000000E+00   6.80963063823853E-10  -1.68018984719082E-34
      6.80963063823853E-10   3.85185180086164E-18
      6.36206661126266E-02
      0.00000000000000E+00   1.59973707615631E-10   0.00000000000000E+00   0.00000000000000E+00  -7.52160001580183E-10
     -1.61149129270299E-34  -7.52160001580183E-10   4.71426798572251E-18   0.00000000000000E+00   0.00000000000000E+00
      0.00000000000000E+00   0.00000000000000E+00   0.00000000000000E+00   0.00000000000000E+00   0.00000000000000E+00
      2.75104691997319E-18   0.00000000000000E+00   0.00000000000000E+00   0.00000000000000E+00   0.00000000000000E+00
      1.81531885191973E-17   3.39327933666801E-34   1.81531885191973E-17  -1.13210478997665E-17   3.18103330563133E-03
      3.18103314418412E-03   0.00000000000000E+00   0.00000000000000E+00   7.52159983426994E-10  -1.78178804396502E-34
      7.52159983426994E-10   3.85573299407075E-18
      7.09760660572226E-02
      0.00000000000000E+00   1.76201829614831E-10   0.00000000000000E+00   0.00000000000000E+00  -8.28449248573018E-10
     -1.69138245675687E-34  -8.28449248573018E-10   4.71413867794547E-18   0.00000000000000E+00   0.00000000000000E+00
      0.00000000000000E+00   0.00000000000000E+00   0.00000000000000E+00   0.00000000000000E+00   0.00000000000000E+00
      2.74673797116063E-18   0.00000000000000E+00   0.00000000000000E+00   0.00000000000000E+00   0.00000000000000E+00
      2.84492370567453E-17   3.46758534125952E-34   2.84492370567453E-17  -1.13208795732916E-17   3.54880330286113E-03
      3.54880312503693E-03   0.00000000000000E+00   0.00000000000000E+00   8.28449220123781E-10  -1.77620288450264E-34
      8.28449220123781E-10   3.86000292418556E-18
      7.90670059962782E-02
      0.00000000000000E+00   1.93541828334963E-10   0.00000000000000E+00   0.00000000000000E+00  -9.09962671324835E-10
     -1.91590025930342E-34  -9.09962671324835E-10   4.71399645622206E-18   0.00000000000000E+00   0.00000000000000E+00
      0.00000000000000E+00   0.00000000000000E+00   0.00000000000000E+00   0.00000000000000E+00   0.00000000000000E+00
      2.74199874734383E-18   0.00000000000000E+00   0.00000000000000E+00   0.00000000000000E+00   0.00000000000000E+00
      2.80670053926807E-17   3.52400837291977E-34   2.80670053926807E-17  -1.13206957948948E-17   3.95335029981391E-03
      3.95335010449078E-03   0.00000000000000E+00   0.00000000000000E+00   9.09962643257830E-10  -1.60810811361635E-34
      9.09962643257830E-10   3.86470059132891E-18
      8.79670399292394E-02
      0.00000000000000E+00   2.12011527720265E-10   0.00000000000000E+00   0.00000000000000E+00  -9.96783461226458E-10
     -1.85299555649572E-34  -9.96783461226458E-10   4.71384003254772E-18   0.00000000000000E+00   0.00000000000000E+00
      0.00000000000000E+00   0.00000000000000E+00   0.00000000000000E+00   0.00000000000000E+00   0.00000000000000E+00
      2.73678634597103E-18   0.00000000000000E+00   0.00000000000000E+00   0.00000000000000E+00   0.00000000000000E+00
      7.02989468527551E-17   3.75478014957162E-34   7.02989468527551E-17  -1.13204952996607E-17   4.39835199646197E-03
      4.39835178250000E-03   0.00000000000000E+00   0.00000000000000E+00   9.96783390927511E-10  -1.90178459307590E-34
      9.96783390927511E-10   3.86986892114188E-18
      9.77570772554967E-02
      0.00000000000000E+00   2.31615776479695E-10   0.00000000000000E+00   0.00000000000000E+00  -1.08893362161024E-09
     -1.89208835664895E-34  -1.08893362161024E-09   4.71366799077807E-18   0.00000000000000E+00   0.00000000000000E+00
      0.00000000000000E+00   0.00000000000000E+00   0.00000000000000E+00   0.00000000000000E+00   0.00000000000000E+00
      2.73105359877388E-18   0.00000000000000E+00   0.00000000000000E+00   0.00000000000000E+00   0.00000000000000E+00
      5.87023985552060E-17   3.60404432678838E-34   5.87023985552060E-17  -1.13202767518869E-17   4.88785386277484E-03
      4.88785362902926E-03   0.00000000000000E+00   0.00000000000000E+00   1.08893356290784E-09  -1.71195597013942E-34
      1.08893356290784E-09   3.87555516233499E-18
      1.07757077255497E-01
      0.00000000000000E+00   2.50891820670092E-10   0.00000000000000E+00   0.00000000000000E+00  -1.17953724042653E-09
     -2.09299669446657E-34  -1.17953724042653E-09   4.71349228532468E-18   0.00000000000000E+00   0.00000000000000E+00
      0.00000000000000E+00   0.00000000000000E+00   0.00000000000000E+00   0.00000000000000E+00   0.00000000000000E+00
      2.72519886311311E-18   0.00000000000000E+00   0.00000000000000E+00   0.00000000000000E+00   0.00000000000000E+00
      7.19544566167273E-17   3.79830572147061E-34   7.19544566167273E-17  -1.13200556620891E-17   5.38785386277483E-03
      5.38785360957705E-03   0.00000000000000E+00   0.00000000000000E+00   1.17953716847207E-09  -1.70530902700404E-34
      1.17953716847207E-09   3.88136451365129E-18
      1.17757077255497E-01
      0.00000000000000E+00   2.69434191770480E-10   0.00000000000000E+00   0.00000000000000E+00  -1.26668871391208E-09
     -1.45836751521561E-34  -1.26668871391208E-09   4.71331660592530E-18   0.00000000000000E+00   0.00000000000000E+00
      0.00000000000000E+00   0.00000000000000E+00   0.00000000000000E+00   0.00000000000000E+00   0.00000000000000E+00
      2.71934508860792E-18   0.00000000000000E+00   0.00000000000000E+00   0.00000000000000E+00   0.00000000000000E+00
      6.79187803660994E-17   3.17952099406216E-34   6.79187803660994E-17  -1.13198367247381E-17   5.88785386277483E-03
      5.88785359086542E-03   0.00000000000000E+00   0.00000000000000E+00   1.26668864599330E-09  -1.72115347884655E-34
      1.26668864599330E-09   3.88717503020490E-18
      1.27757077255497E-01
      0.00000000000000E+00   2.87265807642171E-10   0.00000000000000E+00   0.00000000000000E+00  -1.35049612668750E-09
     -1.88965559449071E-34  -1.35049612668750E-09   4.71314095233365E-18   0.00000000000000E+00   0.00000000000000E+00
      0.00000000000000E+00   0.00000000000000E+00   0.00000000000000E+00   0.00000000000000E+00   0.00000000000000E+00
      2.71349226700567E-18   0.00000000000000E+00   0.00000000000000E+00   0.00000000000000E+00   0.00000000000000E+00
      6.68067023075284E-17   3.65777525293492E-34   6.68067023075284E-17  -1.13196199245045E-17   6.38785386277483E-03
      6.38785357287120E-03   0.00000000000000E+00   0.00000000000000E+00   1.35049605988080E-09  -1.76811965844420E-34
      1.35049605988080E-09   3.89298670516519E-18
      1.37757077255497E-01
      0.00000000000000E+00   3.04409289817232E-10   0.00000000000000E+00   0.00000000000000E+00  -1.43106622223718E-09
     -1.64223501072503E-34  -1.43106622223718E-09   4.71296532430336E-18   0.00000000000000E+00   0.00000000000000E+00
      0.00000000000000E+00   0.00000000000000E+00   0.00000000000000E+00   0.00000000000000E+00   0.00000000000000E+00
      2.70764039015552E-18   0.00000000000000E+00   0.00000000000000E+00   0.00000000000000E+00   0.00000000000000E+00
      7.01387548598158E-17   3.22554835093693E-34   7.01387548598158E-17  -1.13194052462215E-17   6.88785386277483E-03
      6.88785355557154E-03   0.00000000000000E+00   0.00000000000000E+00   1.43106615209842E-09  -1.58331334021191E-34
      1.43106615209842E-09   3.89879953176256E-18
      1.47757077255497E-01
      0.00000000000000E+00   3.20886965231401E-10   0.00000000000000E+00   0.00000000000000E+00  -1.50850431965926E-09
     -1.70307454454227E-34  -1.50850431965926E-09   4.71278972158470E-18   0.00000000000000E+00   0.00000000000000E+00
      0.00000000000000E+00   0.00000000000000E+00   0.00000000000000E+00   0.00000000000000E+00   0.00000000000000E+00
      2.70178944987018E-18   0.00000000000000E+00   0.00000000000000E+00   0.00000000000000E+00   0.00000000000000E+00
      6.46076769240170E-17   3.12637185095349E-34   6.46076769240170E-17  -1.13191926746761E-17   7.38785386277483E-03
      7.38785353894390E-03   0.00000000000000E+00   0.00000000000000E+00   1.50850425505159E-09  -1.42329730641122E-34
      1.50850425505159E-09   3.90461350322123E-18
      1.57757077255497E-01
      0.00000000000000E+00   3.36720803838987E-10   0.00000000000000E+00   0.00000000000000E+00  -1.58291393781759E-09
     -1.69111450773214E-34  -1.58291393781759E-09   4.71261414392716E-18   0.00000000000000E+00   0.00000000000000E+00
      0.00000000000000E+00   0.00000000000000E+00   0.00000000000000E+00   0.00000000000000E+00   0.00000000000000E+00
      2.69593943803137E-18   0.00000000000000E+00   0.00000000000000E+00   0.00000000000000E+00   0.00000000000000E+00
      6.35407787341927E-17   3.07378430081513E-34   6.35407787341927E-17  -1.13189821947680E-17   7.88785386277484E-03
      7.88785352296607E-03   0.00000000000000E+00   0.00000000000000E+00   1.58291387427681E-09  -1.38266979308298E-34
      1.58291387427681E-09   3.91042861280949E-18
      1.67757077255497E-01
      0.00000000000000E+00   3.51932295575576E-10   0.00000000000000E+00   0.00000000000000E+00  -1.65439656239811E-09
     -1.69367081918041E-34  -1.65439656239811E-09   4.71243859107987E-18   0.00000000000000E+00   0.00000000000000E+00
      0.00000000000000E+00   0.00000000000000E+00   0.00000000000000E+00   0.00000000000000E+00   0.00000000000000E+00
      2.69009034658472E-18   0.00000000000000E+00   0.00000000000000E+00   0.00000000000000E+00   0.00000000000000E+00
      6.25344654750265E-17   3.31979887803134E-34   6.25344654750265E-17  -1.13187737915122E-17   8.38785386277484E-03
      8.38785350761640E-03   0.00000000000000E+00   0.00000000000000E+00   1.65439649986364E-09  -1.62612805885093E-34
      1.65439649986364E-09   3.91624485384761E-18
      1.77757077255497E-01
      0.00000000000000E+00   3.66542484149967E-10   0.00000000000000E+00   0.00000000000000E+00  -1.72305138672660E-09
     -1.58024994086361E-34  -1.72305138672660E-09   4.71226306279308E-18   0.00000000000000E+00   0.00000000000000E+00
      0.00000000000000E+00   0.00000000000000E+00   0.00000000000000E+00   0.00000000000000E+00   0.00000000000000E+00
      2.68424216758922E-18   0.00000000000000E+00   0.00000000000000E+00   0.00000000000000E+00   0.00000000000000E+00
      6.15006202005299E-17   3.24361598942503E-34   6.15006202005299E-17  -1.13185674500914E-17   8.88785386277484E-03
      8.88785349287362E-03   0.00000000000000E+00   0.00000000000000E+00   1.72305132522598E-09  -1.66336604856142E-34
      1.72305132522598E-09   3.92206221970909E-18
      1.87757077255497E-01
      0.00000000000000E+00   3.80571916789499E-10   0.00000000000000E+00   0.00000000000000E+00  -1.78897529846994E-09
     -1.70924977627800E-34  -1.78897529846994E-09   4.71208755881789E-18   0.00000000000000E+00   0.00000000000000E+00
      0.00000000000000E+00   0.00000000000000E+00   0.00000000000000E+00   0.00000000000000E+00   0.00000000000000E+00
      2.67839489319965E-18   0.00000000000000E+00   0.00000000000000E+00   0.00000000000000E+00   0.00000000000000E+00
      6.04697747280971E-17   3.17673689725529E-34   6.04697747280971E-17  -1.13183631558463E-17   9.38785386277484E-03
      9.38785347871702E-03   0.00000000000000E+00   0.00000000000000E+00   1.78897523800016E-09  -1.46748712097729E-34
      1.78897523800016E-09   3.92788070382879E-18
      1.97757077255497E-01
      0.00000000000000E+00   3.94040723087899E-10   0.00000000000000E+00   0.00000000000000E+00  -1.85226315608755E-09