DF-ISE text

Info {
  version   = 1.0
  type      = xyplot
  datasets  = [
    "time"
    "source OuterVoltage" "source InnerVoltage" "source QuasiFermiPotential" "source DisplacementCurrent" "source eCurrent"
    "source hCurrent" "source TotalCurrent" "source Charge" "gate OuterVoltage" "gate InnerVoltage"
    "gate QuasiFermiPotential" "gate DisplacementCurrent" "gate eCurrent" "gate hCurrent" "gate TotalCurrent"
    "gate Charge" "substrate OuterVoltage" "substrate InnerVoltage" "substrate QuasiFermiPotential" "substrate DisplacementCurrent"
    "substrate eCurrent" "substrate hCurrent" "substrate TotalCurrent" "substrate Charge" "drain OuterVoltage"
    "drain InnerVoltage" "drain QuasiFermiPotential" "drain DisplacementCurrent" "drain eCurrent" "drain hCurrent"
    "drain TotalCurrent" "drain Charge" ]
  functions = [
    Time
    OuterVoltage InnerVoltage QuasiFermiPotential DisplacementCurrent eCurrent
    hCurrent TotalCurrent Charge OuterVoltage InnerVoltage
    QuasiFermiPotential DisplacementCurrent eCurrent hCurrent TotalCurrent
    Charge OuterVoltage InnerVoltage QuasiFermiPotential DisplacementCurrent
    eCurrent hCurrent TotalCurrent Charge OuterVoltage
    InnerVoltage QuasiFermiPotential DisplacementCurrent eCurrent hCurrent
    TotalCurrent Charge ]
}

Data {
      0.00000000000000E+00
      0.00000000000000E+00   0.00000000000000E+00   0.00000000000000E+00   0.00000000000000E+00  -1.34189738017680E-20
     -1.00598760672209E-34  -1.34189738017681E-20   5.03379054019932E-18   0.00000000000000E+00   0.00000000000000E+00
      0.00000000000000E+00   0.00000000000000E+00   0.00000000000000E+00   0.00000000000000E+00   0.00000000000000E+00
      4.75831576317444E-18   0.00000000000000E+00   0.00000000000000E+00   0.00000000000000E+00   0.00000000000000E+00
      8.66339495017304E-21   2.49756210403493E-34   8.66339495017329E-21  -1.39617998032240E-17   0.00000000000000E+00
      0.00000000000000E+00   0.00000000000000E+00   0.00000000000000E+00   4.75557885159497E-21  -1.49157449731284E-34
      4.75557885159482E-21   4.16969349985022E-18
      0.00000000000000E+00
      0.00000000000000E+00   0.00000000000000E+00   0.00000000000000E+00   0.00000000000000E+00  -4.94494465046079E-20
     -1.20430314227514E-34  -4.94494465046080E-20   5.03237079983031E-18   0.00000000000000E+00   0.00000000000000E+00
      0.00000000000000E+00   0.00000000000000E+00   0.00000000000000E+00   0.00000000000000E+00   0.00000000000000E+00
      4.75202507435201E-18   0.00000000000000E+00   0.00000000000000E+00   0.00000000000000E+00   0.00000000000000E+00
      4.55062651829906E-20   2.63743284370641E-34   4.55062651829909E-20  -1.39529698407257E-17   0.00000000000000E+00
      0.00000000000000E+00   0.00000000000000E+00   0.00000000000000E+00   3.94318132161710E-21  -1.43312970143128E-34
      3.94318132161696E-21   4.16857396654347E-18
      1.00000000000000E-03
      0.00000000000000E+00   1.21482410267291E-12   0.00000000000000E+00   0.00000000000000E+00  -5.55025217189809E-12
     -1.11677587813915E-34  -5.55025217189809E-12   5.03236150945653E-18   0.00000000000000E+00   0.00000000000000E+00
      0.00000000000000E+00   0.00000000000000E+00   0.00000000000000E+00   0.00000000000000E+00   0.00000000000000E+00
      4.75138825949717E-18   0.00000000000000E+00   0.00000000000000E+00   0.00000000000000E+00   0.00000000000000E+00
     -3.19702603460910E-19   2.46657353078942E-34  -3.19702603460910E-19  -1.39529422638911E-17   5.00000000000000E-05
      4.99999987823731E-05   0.00000000000000E+00   0.00000000000000E+00   5.55025249160069E-12  -1.34979765265027E-34
      5.55025249160069E-12   4.16919249493736E-18
      2.09333333333333E-03
      0.00000000000000E+00   2.53917588917991E-12   0.00000000000000E+00   0.00000000000000E+00  -1.16009295077805E-11
     -1.10147245215263E-34  -1.16009295077805E-11   5.03235135210077E-18   0.00000000000000E+00   0.00000000000000E+00
      0.00000000000000E+00   0.00000000000000E+00   0.00000000000000E+00   0.00000000000000E+00   0.00000000000000E+00
      4.75069201865331E-18   0.00000000000000E+00   0.00000000000000E+00   0.00000000000000E+00   0.00000000000000E+00
     -1.86057875809878E-19   2.69059592372702E-34  -1.86057875809878E-19  -1.39529121371559E-17   1.04666666666667E-04
      1.04666664121625E-04   0.00000000000000E+00   0.00000000000000E+00   1.16009296938383E-11  -1.58912347157440E-34
      1.16009296938383E-11   4.16986876640187E-18
      3.29600000000000E-03
      0.00000000000000E+00   3.99116181243579E-12   0.00000000000000E+00   0.00000000000000E+00  -1.82347647432033E-11
     -1.33224820911981E-34  -1.82347647432033E-11   5.03234017915425E-18   0.00000000000000E+00   0.00000000000000E+00
      0.00000000000000E+00   0.00000000000000E+00   0.00000000000000E+00   0.00000000000000E+00   0.00000000000000E+00
      4.74992616585570E-18   0.00000000000000E+00   0.00000000000000E+00   0.00000000000000E+00   0.00000000000000E+00
     -8.57491505450873E-21   2.81457105296615E-34  -8.57491505450845E-21  -1.39528790266056E-17   1.64800000000000E-04
      1.64799995999603E-04   0.00000000000000E+00   0.00000000000000E+00   1.82347647517783E-11  -1.48232284384634E-34
      1.82347647517783E-11   4.17061268159561E-18
      4.61893333333333E-03
      0.00000000000000E+00   5.58247393426420E-12   0.00000000000000E+00   0.00000000000000E+00  -2.55050110478687E-11
     -1.03721620295796E-34  -2.55050110478687E-11   5.03232788908862E-18   0.00000000000000E+00   0.00000000000000E+00
      0.00000000000000E+00   0.00000000000000E+00   0.00000000000000E+00   0.00000000000000E+00   0.00000000000000E+00
      4.74908374244083E-18   0.00000000000000E+00   0.00000000000000E+00   0.00000000000000E+00   0.00000000000000E+00
     -1.96833904390216E-19   2.47204950483979E-34  -1.96833904390216E-19  -1.39528426398892E-17   2.30946666666667E-04
      2.30946661071302E-04   0.00000000000000E+00   0.00000000000000E+00   2.55050112447026E-11  -1.43483330188183E-34
      2.55050112447026E-11   4.17143100835973E-18
      6.07416000000000E-03
      0.00000000000000E+00   7.32567570760661E-12   0.00000000000000E+00   0.00000000000000E+00  -3.34692581266246E-11
     -1.24146031993708E-34  -3.34692581266246E-11   5.03231437022899E-18   0.00000000000000E+00   0.00000000000000E+00
      0.00000000000000E+00   0.00000000000000E+00   0.00000000000000E+00   0.00000000000000E+00   0.00000000000000E+00
      4.74815709440525E-18   0.00000000000000E+00   0.00000000000000E+00   0.00000000000000E+00   0.00000000000000E+00
     -6.07029091571292E-20   2.52048881749828E-34  -6.07029091571290E-20  -1.39528026566777E-17   3.03708000000000E-04
      3.03707992657393E-04   0.00000000000000E+00   0.00000000000000E+00   3.34692581873276E-11  -1.27902849756120E-34
      3.34692581873276E-11   4.17233119204348E-18
      7.67490933333333E-03
      0.00000000000000E+00   9.23438226433981E-12   0.00000000000000E+00   0.00000000000000E+00  -4.21896222399363E-11
     -1.16020225522078E-34  -4.21896222399363E-11   5.03229949974074E-18   0.00000000000000E+00   0.00000000000000E+00
      0.00000000000000E+00   0.00000000000000E+00   0.00000000000000E+00   0.00000000000000E+00   0.00000000000000E+00
      4.74713780298070E-18   0.00000000000000E+00   0.00000000000000E+00   0.00000000000000E+00   0.00000000000000E+00
     -5.74563753474230E-20   2.42812112097578E-34  -5.74563753474228E-20  -1.39527587261271E-17   3.83745466666667E-04
      3.83745457410930E-04   0.00000000000000E+00   0.00000000000000E+00   4.21896222973927E-11  -1.26791886575500E-34
      4.21896222973927E-11   4.17332142340567E-18
      9.43573360000000E-03
      0.00000000000000E+00   1.13232434069912E-11   0.00000000000000E+00   0.00000000000000E+00  -5.17329326681188E-11
     -1.13565535219158E-34  -5.17329326681188E-11   5.03228314251506E-18   0.00000000000000E+00   0.00000000000000E+00
      0.00000000000000E+00   0.00000000000000E+00   0.00000000000000E+00   0.00000000000000E+00   0.00000000000000E+00
      4.74601660828858E-18   0.00000000000000E+00   0.00000000000000E+00   0.00000000000000E+00   0.00000000000000E+00
     -5.19803687086106E-21   2.56421901413728E-34  -5.19803687086080E-21  -1.39527104641408E-17   4.71786680000000E-04
      4.71786668650588E-04   0.00000000000000E+00   0.00000000000000E+00   5.17329326733169E-11  -1.42856366194570E-34
      5.17329326733169E-11   4.17441071333716E-18
      1.13726402933333E-02
      0.00000000000000E+00   1.36079328368253E-11   0.00000000000000E+00   0.00000000000000E+00  -6.21708880969775E-11
     -1.50615781357864E-34  -6.21708880969775E-11   5.03226514994348E-18   0.00000000000000E+00   0.00000000000000E+00
      0.00000000000000E+00   0.00000000000000E+00   0.00000000000000E+00   0.00000000000000E+00   0.00000000000000E+00
      4.74478332538719E-18   0.00000000000000E+00   0.00000000000000E+00   0.00000000000000E+00   0.00000000000000E+00
      1.48700846126680E-19   3.06011467577485E-34   1.48700846126680E-19  -1.39526574504242E-17   5.68632014666667E-04
      5.68632001027287E-04   0.00000000000000E+00   0.00000000000000E+00   6.21708879482766E-11  -1.55395686219621E-34
      6.21708879482766E-11   4.17560897509346E-18
      1.35032376560000E-02
      0.00000000000000E+00   1.61052411324663E-11   0.00000000000000E+00   0.00000000000000E+00  -7.35801723461696E-11
     -1.19285030818957E-34  -7.35801723461696E-11   5.03224535857024E-18   0.00000000000000E+00   0.00000000000000E+00
      0.00000000000000E+00   0.00000000000000E+00   0.00000000000000E+00   0.00000000000000E+00   0.00000000000000E+00
      4.74342675195544E-18   0.00000000000000E+00   0.00000000000000E+00   0.00000000000000E+00   0.00000000000000E+00
     -8.68278268872933E-20   2.70624270594110E-34  -8.68278268872931E-20  -1.39525992253213E-17   6.75161882800000E-04
      6.75161866657551E-04   0.00000000000000E+00   0.00000000000000E+00   7.35801724329974E-11  -1.51339239775153E-34
      7.35801724329974E-11   4.17692711479558E-18
      1.58468947549333E-02
      0.00000000000000E+00   1.88330808523838E-11   0.00000000000000E+00   0.00000000000000E+00  -8.60425130037356E-11
     -1.20196459855583E-34  -8.60425130037356E-11   5.03222358861037E-18   0.00000000000000E+00   0.00000000000000E+00
      0.00000000000000E+00   0.00000000000000E+00   0.00000000000000E+00   0.00000000000000E+00   0.00000000000000E+00
      4.74193456678397E-18   0.00000000000000E+00   0.00000000000000E+00   0.00000000000000E+00   0.00000000000000E+00
      7.91537158192626E-20   2.75872415841036E-34   7.91537158192629E-20  -1.39525352864298E-17   7.92344737746667E-04
      7.92344718870088E-04   0.00000000000000E+00   0.00000000000000E+00   8.60425129245818E-11  -1.55675955985453E-34
      8.60425129245818E-11   4.17837713103546E-18
      1.84249175637600E-02
      0.00000000000000E+00   2.18104332422675E-11   0.00000000000000E+00   0.00000000000000E+00  -9.96446606654308E-11
     -1.13574153240110E-34  -9.96446606654308E-11   5.03219964232006E-18   0.00000000000000E+00   0.00000000000000E+00
      0.00000000000000E+00   0.00000000000000E+00   0.00000000000000E+00   0.00000000000000E+00   0.00000000000000E+00
      4.74029321816164E-18   0.00000000000000E+00   0.00000000000000E+00   0.00000000000000E+00   0.00000000000000E+00
      2.58830319724900E-19   2.47973368431423E-34   2.58830319724900E-19  -1.39524650849891E-17   9.21245878188001E-04
      9.21245856327200E-04   0.00000000000000E+00   0.00000000000000E+00   9.96446604066004E-11  -1.34399215191313E-34
      9.96446604066004E-11   4.17997222450742E-18
      2.12607426534693E-02
      0.00000000000000E+00   2.50573760152250E-11   0.00000000000000E+00   0.00000000000000E+00  -1.14478272085131E-10
     -1.06791461295216E-34  -1.14478272085131E-10   5.03217330220488E-18   0.00000000000000E+00   0.00000000000000E+00
      0.00000000000000E+00   0.00000000000000E+00   0.00000000000000E+00   0.00000000000000E+00   0.00000000000000E+00
      4.73848780115605E-18   0.00000000000000E+00   0.00000000000000E+00   0.00000000000000E+00   0.00000000000000E+00
      1.49458530675909E-19   2.47443737762074E-34   1.49458530675910E-19  -1.39523880220426E-17   1.06303713267347E-03
      1.06303710755824E-03   0.00000000000000E+00   0.00000000000000E+00   1.14478271935673E-10  -1.40652276466858E-34
      1.14478271935673E-10   4.18172691868164E-18
      2.43801502521496E-02
      0.00000000000000E+00   2.85950028459018E-11   0.00000000000000E+00   0.00000000000000E+00  -1.30639666887165E-10
     -1.27239898501996E-34  -1.30639666887165E-10   5.03214432904950E-18   0.00000000000000E+00   0.00000000000000E+00
      0.00000000000000E+00   0.00000000000000E+00   0.00000000000000E+00   0.00000000000000E+00   0.00000000000000E+00
      4.73650192269026E-18   0.00000000000000E+00   0.00000000000000E+00   0.00000000000000E+00   0.00000000000000E+00
      3.04111769907156E-19   2.76754427583093E-34   3.04111769907156E-19  -1.39523034443798E-17   1.21900751260748E-03
      1.21900748394648E-03   0.00000000000000E+00   0.00000000000000E+00   1.30639666583053E-10  -1.49514529081097E-34
      1.30639666583053E-10   4.18365719264000E-18
      2.78114986106979E-02
      0.00000000000000E+00   3.24453371951717E-11   0.00000000000000E+00   0.00000000000000E+00  -1.48229433543580E-10
     -9.28966356755034E-35  -1.48229433543580E-10   5.03211245975142E-18   0.00000000000000E+00   0.00000000000000E+00
      0.00000000000000E+00   0.00000000000000E+00   0.00000000000000E+00   0.00000000000000E+00   0.00000000000000E+00
      4.73431755320186E-18   0.00000000000000E+00   0.00000000000000E+00   0.00000000000000E+00   0.00000000000000E+00
      5.74853845468069E-19   2.06959711431645E-34   5.74853845468069E-19  -1.39522106402605E-17   1.39057493053490E-03
      1.39057489801468E-03   0.00000000000000E+00   0.00000000000000E+00   1.48229432968726E-10  -1.14063075756141E-34
      1.48229432968726E-10   4.18578062730725E-18
      3.15859818051010E-02
      0.00000000000000E+00   3.66312359298573E-11   0.00000000000000E+00   0.00000000000000E+00  -1.67351840165919E-10
     -1.15692115868874E-34  -1.67351840165919E-10   5.03207740493922E-18   0.00000000000000E+00   0.00000000000000E+00
      0.00000000000000E+00   0.00000000000000E+00   0.00000000000000E+00   0.00000000000000E+00   0.00000000000000E+00
      4.73191486356916E-18   0.00000000000000E+00   0.00000000000000E+00   0.00000000000000E+00   0.00000000000000E+00
      9.35324453088620E-19   2.70354574774170E-34   9.35324453088620E-19  -1.39521088349531E-17   1.57929909025505E-03
      1.57929905353931E-03   0.00000000000000E+00   0.00000000000000E+00   1.67351839230595E-10  -1.54662458905297E-34
      1.67351839230595E-10   4.18811656644472E-18
      3.57379133189445E-02
      0.00000000000000E+00   4.11761602778297E-11   0.00000000000000E+00   0.00000000000000E+00  -1.88114018535144E-10
     -1.17255123150081E-34  -1.88114018535144E-10   5.03203884635391E-18   0.00000000000000E+00   0.00000000000000E+00
      0.00000000000000E+00   0.00000000000000E+00   0.00000000000000E+00   0.00000000000000E+00   0.00000000000000E+00
      4.72927204584033E-18   0.00000000000000E+00   0.00000000000000E+00   0.00000000000000E+00   0.00000000000000E+00
      1.66028248359884E-18   2.63562535625777E-34   1.66028248359884E-18  -1.39519971860997E-17   1.78689566594722E-03
      1.78689562467611E-03   0.00000000000000E+00   0.00000000000000E+00   1.88114016874861E-10  -1.46307412475696E-34
      1.88114016874861E-10   4.19068629390545E-18
      4.03050379841723E-02
      0.00000000000000E+00   4.61039615236217E-11   0.00000000000000E+00   0.00000000000000E+00  -2.10624834515674E-10
     -1.26072809109472E-34  -2.10624834515674E-10   5.03199643397038E-18   0.00000000000000E+00   0.00000000000000E+00
      0.00000000000000E+00   0.00000000000000E+00   0.00000000000000E+00   0.00000000000000E+00   0.00000000000000E+00
      4.72636511618328E-18   0.00000000000000E+00   0.00000000000000E+00   0.00000000000000E+00   0.00000000000000E+00
      2.40431378336299E-18   2.72746786128409E-34   2.40431378336299E-18  -1.39518747789667E-17   2.01525189920861E-03
      2.01525185299837E-03   0.00000000000000E+00   0.00000000000000E+00   2.10624832111360E-10  -1.46673977018937E-34
      2.10624832111360E-10   4.19351322881305E-18
      4.53288751159228E-02
      0.00000000000000E+00   5.14386015056165E-11   0.00000000000000E+00   0.00000000000000E+00  -2.34993572976541E-10
     -1.17902851746786E-34  -2.34993572976541E-10   5.03194978283215E-18   0.00000000000000E+00   0.00000000000000E+00
      0.00000000000000E+00   0.00000000000000E+00   0.00000000000000E+00   0.00000000000000E+00   0.00000000000000E+00
      4.72316769824241E-18   0.00000000000000E+00   0.00000000000000E+00   0.00000000000000E+00   0.00000000000000E+00
      4.26617252575055E-18   2.59073559549327E-34   4.26617252575055E-18  -1.39517406215597E-17   2.26644375579614E-03
      2.26644370423900E-03   0.00000000000000E+00   0.00000000000000E+00   2.34993568710368E-10  -1.41170707802541E-34
      2.34993568710368E-10   4.19662314048513E-18
      5.08550959608485E-02
      0.00000000000000E+00   5.72037143692461E-11   0.00000000000000E+00   0.00000000000000E+00  -2.61328039336599E-10
     -1.29811427289601E-34  -2.61328039336599E-10   5.03189846957283E-18   0.00000000000000E+00   0.00000000000000E+00
      0.00000000000000E+00   0.00000000000000E+00   0.00000000000000E+00   0.00000000000000E+00   0.00000000000000E+00
      4.71965078510106E-18   0.00000000000000E+00   0.00000000000000E+00   0.00000000000000E+00   0.00000000000000E+00
      7.84032243027116E-18   2.68559029977470E-34   7.84032243027116E-18  -1.39515936398193E-17   2.54275479804242E-03
      2.54275474070695E-03   0.00000000000000E+00   0.00000000000000E+00   2.61328031496277E-10  -1.38747602687869E-34
      2.61328031496277E-10   4.20004438514541E-18
      5.69339388902666E-02
      0.00000000000000E+00   6.34221269333634E-11   0.00000000000000E+00   0.00000000000000E+00  -2.89732417426955E-10
     -1.18355046018738E-34  -2.89732417426955E-10   5.03184202859159E-18   0.00000000000000E+00   0.00000000000000E+00
      0.00000000000000E+00   0.00000000000000E+00   0.00000000000000E+00   0.00000000000000E+00   0.00000000000000E+00
      4.71578247757648E-18   0.00000000000000E+00   0.00000000000000E+00   0.00000000000000E+00   0.00000000000000E+00
      9.91325163783729E-18   2.31745465608638E-34   9.91325163783729E-18  -1.39514326727878E-17   2.84669694451333E-03
      2.84669688094516E-03   0.00000000000000E+00   0.00000000000000E+00   2.89732407513703E-10  -1.13390419589899E-34
      2.89732407513703E-10   4.20380816661976E-18
      6.36206661126266E-02
      0.00000000000000E+00   7.01153166929045E-11   0.00000000000000E+00   0.00000000000000E+00  -3.20304498500609E-10
     -1.29511548489508E-34  -3.20304498500609E-10   5.03177994784980E-18   0.00000000000000E+00   0.00000000000000E+00
      0.00000000000000E+00   0.00000000000000E+00   0.00000000000000E+00   0.00000000000000E+00   0.00000000000000E+00
      4.71152769668238E-18   0.00000000000000E+00   0.00000000000000E+00   0.00000000000000E+00   0.00000000000000E+00
      1.37695810560308E-17   2.70668481825769E-34   1.37695810560308E-17  -1.39512564680537E-17   3.18103330563133E-03
      3.18103323535462E-03   0.00000000000000E+00   0.00000000000000E+00   3.20304484731028E-10  -1.41156933336261E-34
      3.20304484731028E-10   4.20794882352152E-18
      7.09760660572226E-02
      0.00000000000000E+00   7.73026362411075E-11   0.00000000000000E+00   0.00000000000000E+00  -3.53132439159616E-10
     -1.29125732379642E-34  -3.53132439159616E-10   5.03171166425090E-18   0.00000000000000E+00   0.00000000000000E+00
      0.00000000000000E+00   0.00000000000000E+00   0.00000000000000E+00   0.00000000000000E+00   0.00000000000000E+00
      4.70684786761834E-18   0.00000000000000E+00   0.00000000000000E+00   0.00000000000000E+00   0.00000000000000E+00
      2.93225666224748E-17   2.50848449608562E-34   2.93225666224748E-17  -1.39510636774919E-17   3.54880330286113E-03
      3.54880322538064E-03   0.00000000000000E+00   0.00000000000000E+00   3.53132409837049E-10  -1.21722717228919E-34
      3.53132409837049E-10   4.21250414562272E-18
      7.90670059962782E-02
      0.00000000000000E+00   8.50004753280214E-11   0.00000000000000E+00   0.00000000000000E+00  -3.88290807937572E-10
     -1.18493765069888E-34  -3.88290807937572E-10   5.03163655856247E-18   0.00000000000000E+00   0.00000000000000E+00
      0.00000000000000E+00   0.00000000000000E+00   0.00000000000000E+00   0.00000000000000E+00   0.00000000000000E+00
      4.70170057254572E-18   0.00000000000000E+00   0.00000000000000E+00   0.00000000000000E+00   0.00000000000000E+00
      2.92155808879454E-17   2.29615385919025E-34   2.92155808879454E-17  -1.39508528535387E-17   3.95335029981391E-03
      3.95335021461795E-03   0.00000000000000E+00   0.00000000000000E+00   3.88290778721991E-10  -1.11121620849137E-34
      3.88290778721991E-10   4.21751572243050E-18
      8.79670399292394E-02
      0.00000000000000E+00   9.32212845849659E-11   0.00000000000000E+00   0.00000000000000E+00  -4.25836181170379E-10
     -1.33354201929924E-34  -4.25836181170379E-10   5.03155394983548E-18   0.00000000000000E+00   0.00000000000000E+00
      0.00000000000000E+00   0.00000000000000E+00   0.00000000000000E+00   0.00000000000000E+00   0.00000000000000E+00
      4.69603916905058E-18   0.00000000000000E+00   0.00000000000000E+00   0.00000000000000E+00   0.00000000000000E+00
      4.30221918031009E-17   2.57350773467559E-34   4.30221918031009E-17  -1.39506224461725E-17   4.39835199646197E-03
      4.39835190302639E-03   0.00000000000000E+00   0.00000000000000E+00   4.25836138148187E-10  -1.23996571537636E-34
      4.25836138148187E-10   4.22302932728642E-18
      9.77570772554967E-02
      0.00000000000000E+00   1.01972513073683E-10   0.00000000000000E+00   0.00000000000000E+00  -4.65802091186656E-10
     -1.07804499358920E-34  -4.65802091186656E-10   5.03146308927021E-18   0.00000000000000E+00   0.00000000000000E+00
      0.00000000000000E+00   0.00000000000000E+00   0.00000000000000E+00   0.00000000000000E+00   0.00000000000000E+00
      4.68981237088634E-18   0.00000000000000E+00   0.00000000000000E+00   0.00000000000000E+00   0.00000000000000E+00
      6.27684797264130E-17   2.29891935173949E-34   6.27684797264130E-17  -1.39503708008153E-17   4.88785386277484E-03
      4.88785376056802E-03   0.00000000000000E+00   0.00000000000000E+00   4.65802028418176E-10  -1.22087435815029E-34
      4.65802028418176E-10   4.22909534065883E-18
      1.07757077255497E-01
      0.00000000000000E+00   1.10604045192106E-10   0.00000000000000E+00   0.00000000000000E+00  -5.05219386948279E-10
     -1.09754915985992E-34  -5.05219386948279E-10   5.03137028973961E-18   0.00000000000000E+00   0.00000000000000E+00
      0.00000000000000E+00   0.00000000000000E+00   0.00000000000000E+00   0.00000000000000E+00   0.00000000000000E+00
      4.68345282914478E-18   0.00000000000000E+00   0.00000000000000E+00   0.00000000000000E+00   0.00000000000000E+00
      7.27304370984526E-17   2.29991014510364E-34   7.27304370984526E-17  -1.39501156956991E-17   5.38785386277483E-03
      5.38785375191677E-03   0.00000000000000E+00   0.00000000000000E+00   5.05219314217843E-10  -1.20236098524372E-34
      5.05219314217843E-10   4.23529257681470E-18
      1.17757077255497E-01
      0.00000000000000E+00   1.18933435338371E-10   0.00000000000000E+00   0.00000000000000E+00  -5.43254943653801E-10
     -1.35138658806745E-34  -5.43254943653801E-10   5.03127749989887E-18   0.00000000000000E+00   0.00000000000000E+00
      0.00000000000000E+00   0.00000000000000E+00   0.00000000000000E+00   0.00000000000000E+00   0.00000000000000E+00
      4.67709408883023E-18   0.00000000000000E+00   0.00000000000000E+00   0.00000000000000E+00   0.00000000000000E+00
      6.95415430201555E-17   2.64279340914424E-34   6.95415430201555E-17  -1.39498625351626E-17   5.88785386277483E-03
      5.88785374356837E-03   0.00000000000000E+00   0.00000000000000E+00   5.43254874112258E-10  -1.29140682107680E-34
      5.43254874112258E-10   4.24149094643351E-18
      1.27757077255497E-01
      0.00000000000000E+00   1.26969172914300E-10   0.00000000000000E+00   0.00000000000000E+00  -5.79947699944205E-10
     -1.15001259522613E-34  -5.79947699944205E-10   5.03118471965273E-18   0.00000000000000E+00   0.00000000000000E+00
      0.00000000000000E+00   0.00000000000000E+00   0.00000000000000E+00   0.00000000000000E+00   0.00000000000000E+00
      4.67073614307738E-18   0.00000000000000E+00   0.00000000000000E+00   0.00000000000000E+00   0.00000000000000E+00
      7.21518683058984E-17   2.38100059925409E-34   7.21518683058984E-17  -1.39496113061145E-17   6.38785386277483E-03
      6.38785373551430E-03   0.00000000000000E+00   0.00000000000000E+00   5.79947627792337E-10  -1.23098800402797E-34
      5.79947627792337E-10   4.24769044338442E-18
      1.37757077255497E-01
      0.00000000000000E+00   1.34719696863802E-10   0.00000000000000E+00   0.00000000000000E+00  -6.15336369332983E-10
     -1.26345760439440E-34  -6.15336369332983E-10   5.03109194890574E-18   0.00000000000000E+00   0.00000000000000E+00
      0.00000000000000E+00   0.00000000000000E+00   0.00000000000000E+00   0.00000000000000E+00   0.00000000000000E+00
      4.66437898506957E-18   0.00000000000000E+00   0.00000000000000E+00   0.00000000000000E+00   0.00000000000000E+00
      1.16329111554115E-16   2.39834421498273E-34   1.16329111554115E-16  -1.39493619955552E-17   6.88785386277483E-03
      6.88785372774609E-03   0.00000000000000E+00   0.00000000000000E+00   6.15336253003871E-10  -1.13488661058833E-34
      6.15336253003871E-10   4.25389106157986E-18
      1.47757077255497E-01
      0.00000000000000E+00   1.42193358821591E-10   0.00000000000000E+00   0.00000000000000E+00  -6.49459058157090E-10
     -1.39728447334723E-34  -6.49459058157090E-10   5.03099918756175E-18   0.00000000000000E+00   0.00000000000000E+00
      0.00000000000000E+00   0.00000000000000E+00   0.00000000000000E+00   0.00000000000000E+00   0.00000000000000E+00
      4.65802260801905E-18   0.00000000000000E+00   0.00000000000000E+00   0.00000000000000E+00   0.00000000000000E+00
      8.13985928686295E-17   2.45923522855156E-34   8.13985928686295E-17  -1.39491145905356E-17   7.38785386277483E-03
      7.38785372025538E-03   0.00000000000000E+00   0.00000000000000E+00   6.49458976758497E-10  -1.06195075520433E-34
      6.49458976758497E-10   4.26009279495482E-18
      1.57757077255497E-01
      0.00000000000000E+00   1.49398385128019E-10   0.00000000000000E+00   0.00000000000000E+00  -6.82353563722632E-10
     -1.14332666173037E-34  -6.82353563722632E-10   5.03090643552474E-18   0.00000000000000E+00   0.00000000000000E+00
      0.00000000000000E+00   0.00000000000000E+00   0.00000000000000E+00   0.00000000000000E+00   0.00000000000000E+00
      4.65166700520293E-18   0.00000000000000E+00   0.00000000000000E+00   0.00000000000000E+00   0.00000000000000E+00
      6.90391192651788E-17   2.19635223198074E-34   6.90391192651788E-17  -1.39488690782110E-17   7.88785386277484E-03
      7.88785371303395E-03   0.00000000000000E+00   0.00000000000000E+00   6.82353494683512E-10  -1.05302557025038E-34
      6.82353494683512E-10   4.26629563748337E-18
      1.67757077255497E-01
      0.00000000000000E+00   1.56342834875304E-10   0.00000000000000E+00   0.00000000000000E+00  -7.14056873694058E-10
     -1.19344563796830E-34  -7.14056873694058E-10   5.03081369269915E-18   0.00000000000000E+00   0.00000000000000E+00
      0.00000000000000E+00   0.00000000000000E+00   0.00000000000000E+00   0.00000000000000E+00   0.00000000000000E+00
      4.64531216999168E-18   0.00000000000000E+00   0.00000000000000E+00   0.00000000000000E+00   0.00000000000000E+00
      6.54357789362410E-17   2.15996710548159E-34   6.54357789362410E-17  -1.39486254458774E-17   8.38785386277484E-03
      8.38785370607366E-03   0.00000000000000E+00   0.00000000000000E+00   7.14056808258279E-10  -9.66521467513285E-35
      7.14056808258279E-10   4.27249958318657E-18
      1.77757077255497E-01
      0.00000000000000E+00   1.63034656601815E-10   0.00000000000000E+00   0.00000000000000E+00  -7.44605409667265E-10
     -1.15253896838995E-34  -7.44605409667265E-10   5.03072095898932E-18   0.00000000000000E+00   0.00000000000000E+00
      0.00000000000000E+00   0.00000000000000E+00   0.00000000000000E+00   0.00000000000000E+00   0.00000000000000E+00
      4.63895809579464E-18   0.00000000000000E+00   0.00000000000000E+00   0.00000000000000E+00   0.00000000000000E+00
      1.18225763798173E-16   2.16399679051804E-34   1.18225763798173E-16  -1.39483836809018E-17   8.88785386277484E-03
      8.88785369936658E-03   0.00000000000000E+00   0.00000000000000E+00   7.44605291441501E-10  -1.01145782212809E-34
      7.44605291441501E-10   4.27870462611783E-18
      1.87757077255497E-01
      0.00000000000000E+00   1.69481633865559E-10   0.00000000000000E+00   0.00000000000000E+00  -7.74034699844263E-10
     -1.13150095238692E-34  -7.74034699844263E-10   5.03062823430023E-18   0.00000000000000E+00   0.00000000000000E+00
      0.00000000000000E+00   0.00000000000000E+00   0.00000000000000E+00   0.00000000000000E+00   0.00000000000000E+00
      4.63260477611153E-18   0.00000000000000E+00   0.00000000000000E+00   0.00000000000000E+00   0.00000000000000E+00
      1.23586037531167E-16   2.21022471302647E-34   1.23586037531167E-16  -1.39481437707897E-17   9.38785386277484E-03
      9.38785369290489E-03   0.00000000000000E+00   0.00000000000000E+00   7.74034576258225E-10  -1.07872376063955E-34
      7.74034576258225E-10   4.28491076037789E-18
      1.97757077255497E-01
      0.00000000000000E+00   1.75691372771438E-10   0.00000000000000E+00   0.00000000000000E+00  -8.02379653542357E-10