DF-ISE text

Info {
  version   = 1.0
  type      = xyplot
  datasets  = [
    "time"
    "source OuterVoltage" "source InnerVoltage" "source QuasiFermiPotential" "source DisplacementCurrent" "source eCurrent"
    "source hCurrent" "source TotalCurrent" "source Charge" "gate OuterVoltage" "gate InnerVoltage"
    "gate QuasiFermiPotential" "gate DisplacementCurrent" "gate eCurrent" "gate hCurrent" "gate TotalCurrent"
    "gate Charge" "substrate OuterVoltage" "substrate InnerVoltage" "substrate QuasiFermiPotential" "substrate DisplacementCurrent"
    "substrate eCurrent" "substrate hCurrent" "substrate TotalCurrent" "substrate Charge" "drain OuterVoltage"
    "drain InnerVoltage" "drain QuasiFermiPotential" "drain DisplacementCurrent" "drain eCurrent" "drain hCurrent"
    "drain TotalCurrent" "drain Charge" ]
  functions = [
    Time
    OuterVoltage InnerVoltage QuasiFermiPotential DisplacementCurrent eCurrent
    hCurrent TotalCurrent Charge OuterVoltage InnerVoltage
    QuasiFermiPotential DisplacementCurrent eCurrent hCurrent TotalCurrent
    Charge OuterVoltage InnerVoltage QuasiFermiPotential DisplacementCurrent
    eCurrent hCurrent TotalCurrent Charge OuterVoltage
    InnerVoltage QuasiFermiPotential DisplacementCurrent eCurrent hCurrent
    TotalCurrent Charge ]
}

Data {
      0.00000000000000E+00
      0.00000000000000E+00   0.00000000000000E+00   0.00000000000000E+00   0.00000000000000E+00  -5.71069416778048E-21
      4.54988565953676E-34  -5.71069416778003E-21   4.54850727724836E-18   0.00000000000000E+00   0.00000000000000E+00
      0.00000000000000E+00   0.00000000000000E+00   0.00000000000000E+00   0.00000000000000E+00   0.00000000000000E+00
      1.84471417632491E-18   0.00000000000000E+00   0.00000000000000E+00   0.00000000000000E+00   0.00000000000000E+00
      1.95076641367777E-20  -8.87392926055640E-34   1.95076641367768E-20  -1.06274476515811E-17   0.00000000000000E+00
      0.00000000000000E+00   0.00000000000000E+00   0.00000000000000E+00  -1.37969699689972E-20   4.32404360101963E-34
     -1.37969699689968E-20   4.23422619800776E-18
      0.00000000000000E+00
      0.00000000000000E+00   0.00000000000000E+00   0.00000000000000E+00   0.00000000000000E+00  -8.28569129555888E-20
      4.54551335226054E-34  -8.28569129555884E-20   4.54709548415515E-18   0.00000000000000E+00   0.00000000000000E+00
      0.00000000000000E+00   0.00000000000000E+00   0.00000000000000E+00   0.00000000000000E+00   0.00000000000000E+00
      1.84023458061558E-18   0.00000000000000E+00   0.00000000000000E+00   0.00000000000000E+00   0.00000000000000E+00
      2.13493464397733E-19  -8.86100216463481E-34   2.13493464397732E-19  -1.06203837387898E-17   0.00000000000000E+00
      0.00000000000000E+00   0.00000000000000E+00   0.00000000000000E+00  -1.30636551442144E-19   4.31548881237426E-34
     -1.30636551442144E-19   4.23305367401903E-18
      1.00000000000000E-03
      0.00000000000000E+00   3.30176330915683E-12   0.00000000000000E+00   0.00000000000000E+00  -1.53686230698083E-11
      4.58217407693091E-34  -1.53686230698083E-11   4.54707103200646E-18   0.00000000000000E+00   0.00000000000000E+00
      0.00000000000000E+00   0.00000000000000E+00   0.00000000000000E+00   0.00000000000000E+00   0.00000000000000E+00
      1.83959830489730E-18   0.00000000000000E+00   0.00000000000000E+00   0.00000000000000E+00   0.00000000000000E+00
     -2.17658277003188E-19  -8.83218742232167E-34  -2.17658277003189E-19  -1.06203445072465E-17   5.00000000000000E-05
      4.99999966916688E-05   0.00000000000000E+00   0.00000000000000E+00   1.53686232874666E-11   4.25001334539075E-34
      1.53686232874666E-11   4.23367517034272E-18
      2.09333333333333E-03
      0.00000000000000E+00   6.90008420367160E-12   0.00000000000000E+00   0.00000000000000E+00  -3.21176125404917E-11
      4.76459914559358E-34  -3.21176125404917E-11   4.54704429807226E-18   0.00000000000000E+00   0.00000000000000E+00
      0.00000000000000E+00   0.00000000000000E+00   0.00000000000000E+00   0.00000000000000E+00   0.00000000000000E+00
      1.83890265310813E-18   0.00000000000000E+00   0.00000000000000E+00   0.00000000000000E+00   0.00000000000000E+00
     -1.64248561898805E-19  -9.15286432623074E-34  -1.64248561898806E-19  -1.06203016394634E-17   1.04666666666667E-04
      1.04666659752853E-04   0.00000000000000E+00   0.00000000000000E+00   3.21176127047403E-11   4.38826518063715E-34
      3.21176127047403E-11   4.23435468828300E-18
      3.29600000000000E-03
      0.00000000000000E+00   1.08436222520940E-11   0.00000000000000E+00   0.00000000000000E+00  -5.04734661765009E-11
      4.54172330649093E-34  -5.04734661765009E-11   4.54701489124801E-18   0.00000000000000E+00   0.00000000000000E+00
      0.00000000000000E+00   0.00000000000000E+00   0.00000000000000E+00   0.00000000000000E+00   0.00000000000000E+00
      1.83813744778905E-18   0.00000000000000E+00   0.00000000000000E+00   0.00000000000000E+00   0.00000000000000E+00
     -9.04042997239260E-20  -8.71052090077813E-34  -9.04042997239269E-20  -1.06202545154918E-17   1.64800000000000E-04
      1.64799989134801E-04   0.00000000000000E+00   0.00000000000000E+00   5.04734662669052E-11   4.16879759428720E-34
      5.04734662669052E-11   4.23510217645475E-18
      4.61893333333333E-03
      0.00000000000000E+00   1.51634181408861E-11   0.00000000000000E+00   0.00000000000000E+00  -7.05806360081226E-11
      4.66659007405131E-34  -7.05806360081226E-11   4.54698254435209E-18   0.00000000000000E+00   0.00000000000000E+00
      0.00000000000000E+00   0.00000000000000E+00   0.00000000000000E+00   0.00000000000000E+00   0.00000000000000E+00
      1.83729573602105E-18   0.00000000000000E+00   0.00000000000000E+00   0.00000000000000E+00   0.00000000000000E+00
      2.89209877284893E-19  -9.03585931118009E-34   2.89209877284892E-19  -1.06202027161107E-17   2.30946666666667E-04
      2.30946651473071E-04   0.00000000000000E+00   0.00000000000000E+00   7.05806357189127E-11   4.36926923712876E-34
      7.05806357189127E-11   4.23592443573750E-18
      6.07416000000000E-03
      0.00000000000000E+00   1.98929419065032E-11   0.00000000000000E+00   0.00000000000000E+00  -9.25949015793554E-11
      4.56747944064632E-34  -9.25949015793554E-11   4.54694696350696E-18   0.00000000000000E+00   0.00000000000000E+00
      0.00000000000000E+00   0.00000000000000E+00   0.00000000000000E+00   0.00000000000000E+00   0.00000000000000E+00
      1.83636987010009E-18   0.00000000000000E+00   0.00000000000000E+00   0.00000000000000E+00   0.00000000000000E+00
     -1.67344359294017E-19  -8.89271188800771E-34  -1.67344359294018E-19  -1.06201457815117E-17   3.03708000000000E-04
      3.03707980067472E-04   0.00000000000000E+00   0.00000000000000E+00   9.25949017466996E-11   4.32523244736138E-34
      9.25949017466996E-11   4.23682894790462E-18
      7.67490933333333E-03
      0.00000000000000E+00   2.50681859140172E-11   0.00000000000000E+00   0.00000000000000E+00  -1.16683709216603E-10
      4.48329292360385E-34  -1.16683709216603E-10   4.54690782547424E-18   0.00000000000000E+00   0.00000000000000E+00
      0.00000000000000E+00   0.00000000000000E+00   0.00000000000000E+00   0.00000000000000E+00   0.00000000000000E+00
      1.83535143816388E-18   0.00000000000000E+00   0.00000000000000E+00   0.00000000000000E+00   0.00000000000000E+00
      1.62781927246976E-19  -8.84957673018656E-34   1.62781927246975E-19  -1.06200832075186E-17   3.83745466666667E-04
      3.83745441548604E-04   0.00000000000000E+00   0.00000000000000E+00   1.16683709053822E-10   4.36628380658270E-34
      1.16683709053822E-10   4.23782394388049E-18
      9.43573360000000E-03
      0.00000000000000E+00   3.07276943381428E-11   0.00000000000000E+00   0.00000000000000E+00  -1.43026472299057E-10
      4.66217881936339E-34  -1.43026472299057E-10   4.54686477472440E-18   0.00000000000000E+00   0.00000000000000E+00
      0.00000000000000E+00   0.00000000000000E+00   0.00000000000000E+00   0.00000000000000E+00   0.00000000000000E+00
      1.83423118790277E-18   0.00000000000000E+00   0.00000000000000E+00   0.00000000000000E+00   0.00000000000000E+00
      2.67769080971900E-19  -8.78497069350485E-34   2.67769080971899E-19  -1.06200144414853E-17   4.71786680000000E-04
      4.71786649211184E-04   0.00000000000000E+00   0.00000000000000E+00   1.43026472031287E-10   4.12279187414145E-34
      1.43026472031287E-10   4.23891847885810E-18
      1.13726402933333E-02
      0.00000000000000E+00   3.69126306294337E-11   0.00000000000000E+00   0.00000000000000E+00  -1.71814764793568E-10
      4.58544922583465E-34  -1.71814764793568E-10   4.54681742021435E-18   0.00000000000000E+00   0.00000000000000E+00
      0.00000000000000E+00   0.00000000000000E+00   0.00000000000000E+00   0.00000000000000E+00   0.00000000000000E+00
      1.83299894266807E-18   0.00000000000000E+00   0.00000000000000E+00   0.00000000000000E+00   0.00000000000000E+00
      4.44375257861677E-19  -8.87969338809152E-34   4.44375257861676E-19  -1.06199388778529E-17   5.68632014666667E-04
      5.68631977680623E-04   0.00000000000000E+00   0.00000000000000E+00   1.71814764349192E-10   4.29424416225687E-34
      1.71814764349192E-10   4.24012251497047E-18
      1.35032376560000E-02
      0.00000000000000E+00   4.36667956564526E-11   0.00000000000000E+00   0.00000000000000E+00  -2.03252358275282E-10
      4.45523638026215E-34  -2.03252358275282E-10   4.54676533184442E-18   0.00000000000000E+00   0.00000000000000E+00
      0.00000000000000E+00   0.00000000000000E+00   0.00000000000000E+00   0.00000000000000E+00   0.00000000000000E+00
      1.83164350922185E-18   0.00000000000000E+00   0.00000000000000E+00   0.00000000000000E+00   0.00000000000000E+00
      3.07761624925017E-19  -8.54879510724950E-34   3.07761624925016E-19  -1.06198558533459E-17   6.75161882800000E-04
      6.75161839046372E-04   0.00000000000000E+00   0.00000000000000E+00   2.03252357967520E-10   4.09355872698734E-34
      2.03252357967520E-10   4.24144701227964E-18
      1.58468947549333E-02
      0.00000000000000E+00   5.10365619404042E-11   0.00000000000000E+00   0.00000000000000E+00  -2.37555043641153E-10
      4.61192596869784E-34  -2.37555043641153E-10   4.54670803656237E-18   0.00000000000000E+00   0.00000000000000E+00
      0.00000000000000E+00   0.00000000000000E+00   0.00000000000000E+00   0.00000000000000E+00   0.00000000000000E+00
      1.83015257629972E-18   0.00000000000000E+00   0.00000000000000E+00   0.00000000000000E+00   0.00000000000000E+00
      1.79305994738582E-19  -8.89374028341396E-34   1.79305994738581E-19  -1.06197646417874E-17   7.92344737746667E-04
      7.92344686608647E-04   0.00000000000000E+00   0.00000000000000E+00   2.37555043461847E-10   4.28181431471613E-34
      2.37555043461847E-10   4.24290402892532E-18
      1.84249175637600E-02
      0.00000000000000E+00   5.90707869128832E-11   0.00000000000000E+00   0.00000000000000E+00  -2.74950182129287E-10
      4.82874205970224E-34  -2.74950182129287E-10   4.54664501408021E-18   0.00000000000000E+00   0.00000000000000E+00
      0.00000000000000E+00   0.00000000000000E+00   0.00000000000000E+00   0.00000000000000E+00   0.00000000000000E+00
      1.82851260307596E-18   0.00000000000000E+00   0.00000000000000E+00   0.00000000000000E+00   0.00000000000000E+00
      7.82157679719045E-19  -8.98080692049625E-34   7.82157679719044E-19  -1.06196644485187E-17   9.21245878188001E-04
      9.21245818999803E-04   0.00000000000000E+00   0.00000000000000E+00   2.74950181347129E-10   4.15206486079400E-34
      2.74950181347129E-10   4.24450683136252E-18
      2.12607426534693E-02
      0.00000000000000E+00   6.78206694793402E-11   0.00000000000000E+00   0.00000000000000E+00  -3.15675933948192E-10
      4.53524138912559E-34  -3.15675933948192E-10   4.54657569216482E-18   0.00000000000000E+00   0.00000000000000E+00
      0.00000000000000E+00   0.00000000000000E+00   0.00000000000000E+00   0.00000000000000E+00   0.00000000000000E+00
      1.82670869652673E-18   0.00000000000000E+00   0.00000000000000E+00   0.00000000000000E+00   0.00000000000000E+00
      1.18904834233831E-18  -8.62080429493326E-34   1.18904834233831E-18  -1.06195544044020E-17   1.06303713267347E-03
      1.06303706471803E-03   0.00000000000000E+00   0.00000000000000E+00   3.15675932759144E-10   4.08556290580766E-34
      3.15675932759144E-10   4.24627001571035E-18
      2.43801502521496E-02
      0.00000000000000E+00   7.73394591774139E-11   0.00000000000000E+00   0.00000000000000E+00  -3.59980037349400E-10
      4.56763469577474E-34  -3.59980037349400E-10   4.54649944146052E-18   0.00000000000000E+00   0.00000000000000E+00
      0.00000000000000E+00   0.00000000000000E+00   0.00000000000000E+00   0.00000000000000E+00   0.00000000000000E+00
      1.82472447659844E-18   0.00000000000000E+00   0.00000000000000E+00   0.00000000000000E+00   0.00000000000000E+00
      1.35967525736662E-18  -8.65348863916626E-34   1.35967525736662E-18  -1.06194335594018E-17   1.21900751260748E-03
      1.21900743511437E-03   0.00000000000000E+00   0.00000000000000E+00   3.59980035989725E-10   4.08585394339152E-34
      3.59980035989725E-10   4.24820964134286E-18
      2.78114986106979E-02
      0.00000000000000E+00   8.76821137434666E-11   0.00000000000000E+00   0.00000000000000E+00  -4.08118099901398E-10
      4.78243924734816E-34  -4.08118099901398E-10   4.54641556979774E-18   0.00000000000000E+00   0.00000000000000E+00
      0.00000000000000E+00   0.00000000000000E+00   0.00000000000000E+00   0.00000000000000E+00   0.00000000000000E+00
      1.82254192796843E-18   0.00000000000000E+00   0.00000000000000E+00   0.00000000000000E+00   0.00000000000000E+00
      1.99381530146240E-18  -8.98529760198832E-34   1.99381530146240E-18  -1.06193008757322E-17   1.39057493053490E-03
      1.39057484267863E-03   0.00000000000000E+00   0.00000000000000E+00   4.08118097907583E-10   4.20285835464016E-34
      4.08118097907583E-10   4.25034337796603E-18
      3.15859818051010E-02
      0.00000000000000E+00   9.89047678871596E-11   0.00000000000000E+00   0.00000000000000E+00  -4.60351276113775E-10
      4.60124100118083E-34  -4.60351276113775E-10   4.54632331593601E-18   0.00000000000000E+00   0.00000000000000E+00
      0.00000000000000E+00   0.00000000000000E+00   0.00000000000000E+00   0.00000000000000E+00   0.00000000000000E+00
      1.82014123707548E-18   0.00000000000000E+00   0.00000000000000E+00   0.00000000000000E+00   0.00000000000000E+00
      3.09710861810953E-18  -8.56322223949182E-34   3.09710861810953E-18  -1.06191552205679E-17   1.57929909025505E-03
      1.57929899115390E-03   0.00000000000000E+00   0.00000000000000E+00   4.60351273016667E-10   3.96198123831098E-34
      4.60351273016667E-10   4.25269066755645E-18
      3.57379133189445E-02
      0.00000000000000E+00   1.11064127796519E-10   0.00000000000000E+00   0.00000000000000E+00  -5.16943186128340E-10
      4.77885310791116E-34  -5.16943186128340E-10   4.54622184268727E-18   0.00000000000000E+00   0.00000000000000E+00
      0.00000000000000E+00   0.00000000000000E+00   0.00000000000000E+00   0.00000000000000E+00   0.00000000000000E+00
      1.81750061297236E-18   0.00000000000000E+00   0.00000000000000E+00   0.00000000000000E+00   0.00000000000000E+00
      4.84085240293894E-18  -8.76434631349778E-34   4.84085240293893E-18  -1.06189953583412E-17   1.78689566594722E-03
      1.78689555466263E-03   0.00000000000000E+00   0.00000000000000E+00   5.16943181287488E-10   3.98549320558661E-34
      5.16943181287488E-10   4.25527290268156E-18
      4.03050379841723E-02
      0.00000000000000E+00   1.24216575368277E-10   0.00000000000000E+00   0.00000000000000E+00  -5.78156074616397E-10
      4.63662858129297E-34  -5.78156074616397E-10   4.54611022935593E-18   0.00000000000000E+00   0.00000000000000E+00
      0.00000000000000E+00   0.00000000000000E+00   0.00000000000000E+00   0.00000000000000E+00   0.00000000000000E+00
      1.81459609037671E-18   0.00000000000000E+00   0.00000000000000E+00   0.00000000000000E+00   0.00000000000000E+00
      6.81589362631743E-18  -8.58008147135622E-34   6.81589362631743E-18  -1.06188199425961E-17   2.01525189920861E-03
      2.01525177474553E-03   0.00000000000000E+00   0.00000000000000E+00   5.78156067800503E-10   3.94345289006323E-34
      5.78156067800503E-10   4.25811362286349E-18
      4.53288751159228E-02
      0.00000000000000E+00   1.38417183995131E-10   0.00000000000000E+00   0.00000000000000E+00  -6.44245962195697E-10
      4.54998392921420E-34  -6.44245962195697E-10   4.54598746343041E-18   0.00000000000000E+00   0.00000000000000E+00
      0.00000000000000E+00   0.00000000000000E+00   0.00000000000000E+00   0.00000000000000E+00   0.00000000000000E+00
      1.81140131320074E-18   0.00000000000000E+00   0.00000000000000E+00   0.00000000000000E+00   0.00000000000000E+00
      2.82446397337755E-17  -8.46470952859692E-34   2.82446397337755E-17  -1.06186275074843E-17   2.26644375579614E-03
      2.26644361710435E-03   0.00000000000000E+00   0.00000000000000E+00   6.44245933951058E-10   3.91472559938272E-34
      6.44245933951058E-10   4.26123873085317E-18
      5.08550959608485E-02
      0.00000000000000E+00   1.53718412896425E-10   0.00000000000000E+00   0.00000000000000E+00  -7.15456545475030E-10
      4.54113031129365E-34  -7.15456545475030E-10   4.54585243145294E-18   0.00000000000000E+00   0.00000000000000E+00
      0.00000000000000E+00   0.00000000000000E+00   0.00000000000000E+00   0.00000000000000E+00   0.00000000000000E+00
      1.80788729662588E-18   0.00000000000000E+00   0.00000000000000E+00   0.00000000000000E+00   0.00000000000000E+00
      1.42636543331362E-17  -8.52440676426963E-34   1.42636543331362E-17  -1.06184164589272E-17   2.54275479804242E-03
      2.54275464401915E-03   0.00000000000000E+00   0.00000000000000E+00   7.15456531211375E-10   3.98327645297596E-34
      7.15456531211375E-10   4.26467673084843E-18
      5.69339388902666E-02
      0.00000000000000E+00   1.70168542922905E-10   0.00000000000000E+00   0.00000000000000E+00  -7.92012189838626E-10
      4.59223799056501E-34  -7.92012189838626E-10   4.54570390898572E-18   0.00000000000000E+00   0.00000000000000E+00
      0.00000000000000E+00   0.00000000000000E+00   0.00000000000000E+00   0.00000000000000E+00   0.00000000000000E+00
      1.80402216560948E-18   0.00000000000000E+00   0.00000000000000E+00   0.00000000000000E+00   0.00000000000000E+00
      5.72350578271133E-17  -8.41884425732425E-34   5.72350578271133E-17  -1.06181850655121E-17   2.84669694451333E-03
      2.84669677400741E-03   0.00000000000000E+00   0.00000000000000E+00   7.92012132603569E-10   3.82660626675923E-34
      7.92012132603569E-10   4.26845899091695E-18
      6.36206661126266E-02
      0.00000000000000E+00   1.87809837394199E-10   0.00000000000000E+00   0.00000000000000E+00  -8.74109019381884E-10
      4.73614289500857E-34  -8.74109019381884E-10   4.54554054958505E-18   0.00000000000000E+00   0.00000000000000E+00
      0.00000000000000E+00   0.00000000000000E+00   0.00000000000000E+00   0.00000000000000E+00   0.00000000000000E+00
      1.79977086750431E-18   0.00000000000000E+00   0.00000000000000E+00   0.00000000000000E+00   0.00000000000000E+00
      4.09188150561193E-17  -8.49649899322016E-34   4.09188150561193E-17  -1.06179314492038E-17   3.18103330563133E-03
      3.18103311744926E-03   0.00000000000000E+00   0.00000000000000E+00   8.74108978463068E-10   3.76035609821158E-34
      8.74108978463068E-10   4.27262003211449E-18
      7.09760660572226E-02
      0.00000000000000E+00   2.06676422299608E-10   0.00000000000000E+00   0.00000000000000E+00  -9.61905386329758E-10
      4.76121219220109E-34  -9.61905386329758E-10   4.54536087268536E-18   0.00000000000000E+00   0.00000000000000E+00
      0.00000000000000E+00   0.00000000000000E+00   0.00000000000000E+00   0.00000000000000E+00   0.00000000000000E+00
      1.79509485623377E-18   0.00000000000000E+00   0.00000000000000E+00   0.00000000000000E+00   0.00000000000000E+00
      2.22898293012819E-17  -8.57546058460363E-34   2.22898293012819E-17  -1.06176535759623E-17   3.54880330286113E-03
      3.54880309577523E-03   0.00000000000000E+00   0.00000000000000E+00   9.61905364039929E-10   3.81424839240254E-34
      9.61905364039929E-10   4.27719784704320E-18
      7.90670059962782E-02
      0.00000000000000E+00   2.26791797419114E-10   0.00000000000000E+00   0.00000000000000E+00  -1.05551005643851E-09
      4.64445403993815E-34  -1.05551005643851E-09   4.54516325028934E-18   0.00000000000000E+00   0.00000000000000E+00
      0.00000000000000E+00   0.00000000000000E+00   0.00000000000000E+00   0.00000000000000E+00   0.00000000000000E+00
      1.78995174529340E-18   0.00000000000000E+00   0.00000000000000E+00   0.00000000000000E+00   0.00000000000000E+00
      7.53728019609492E-17  -8.43613911362348E-34   7.53728019609492E-17  -1.06173492465161E-17   3.95335029981391E-03
      3.95335007257294E-03   0.00000000000000E+00   0.00000000000000E+00   1.05550998106571E-09   3.79168507368531E-34
      1.05550998106571E-09   4.28223425093339E-18
      8.79670399292394E-02
      0.00000000000000E+00   2.48166039027499E-10   0.00000000000000E+00   0.00000000000000E+00  -1.15496928965852E-09
      4.35420190727452E-34  -1.15496928965852E-09   4.54494589234517E-18   0.00000000000000E+00   0.00000000000000E+00
      0.00000000000000E+00   0.00000000000000E+00   0.00000000000000E+00   0.00000000000000E+00   0.00000000000000E+00
      1.78429492648105E-18   0.00000000000000E+00   0.00000000000000E+00   0.00000000000000E+00   0.00000000000000E+00
      3.98465297607979E-17  -8.12679514303173E-34   3.98465297607979E-17  -1.06170160874283E-17   4.39835199646197E-03
      4.39835174780460E-03   0.00000000000000E+00   0.00000000000000E+00   1.15496924981199E-09   3.77259323575720E-34
      1.15496924981199E-09   4.28777526860215E-18
      9.77570772554967E-02
      0.00000000000000E+00   2.70792690212958E-10   0.00000000000000E+00   0.00000000000000E+00  -1.26025224443941E-09
      4.70418493726936E-34  -1.26025224443941E-09   4.54470683068475E-18   0.00000000000000E+00   0.00000000000000E+00
      0.00000000000000E+00   0.00000000000000E+00   0.00000000000000E+00   0.00000000000000E+00   0.00000000000000E+00
      1.77807315107156E-18   0.00000000000000E+00   0.00000000000000E+00   0.00000000000000E+00   0.00000000000000E+00
      1.14196562874083E-20  -8.28786336478421E-34   1.14196562874075E-20  -1.06166515428001E-17   4.88785386277484E-03
      4.88785359144623E-03   0.00000000000000E+00   0.00000000000000E+00   1.26025224442799E-09   3.58367842751486E-34
      1.26025224442799E-09   4.29387156104377E-18
      1.07757077255497E-01
      0.00000000000000E+00   2.92977351073349E-10   0.00000000000000E+00   0.00000000000000E+00  -1.36347479623758E-09
      4.84193414130780E-34  -1.36347479623758E-09   4.54446267640806E-18   0.00000000000000E+00   0.00000000000000E+00
      0.00000000000000E+00   0.00000000000000E+00   0.00000000000000E+00   0.00000000000000E+00   0.00000000000000E+00
      1.77171871904354E-18   0.00000000000000E+00   0.00000000000000E+00   0.00000000000000E+00   0.00000000000000E+00
      1.64708678253077E-16  -8.37946007212206E-34   1.64708678253077E-16  -1.06162812565835E-17   5.38785386277483E-03
      5.38785356921788E-03   0.00000000000000E+00   0.00000000000000E+00   1.36347463152891E-09   3.53752593081424E-34
      1.36347463152891E-09   4.30009986113182E-18
      1.17757077255497E-01
      0.00000000000000E+00   3.14256260679226E-10   0.00000000000000E+00   0.00000000000000E+00  -1.46247919878480E-09
      4.88018252992013E-34  -1.46247919878480E-09   4.54421855665061E-18   0.00000000000000E+00   0.00000000000000E+00
      0.00000000000000E+00   0.00000000000000E+00   0.00000000000000E+00   0.00000000000000E+00   0.00000000000000E+00
      1.76536506860632E-18   0.00000000000000E+00   0.00000000000000E+00   0.00000000000000E+00   0.00000000000000E+00
      1.57778961338513E-16  -8.38355376505506E-34   1.57778961338513E-16  -1.06159130571432E-17   5.88785386277483E-03
      5.88785354789711E-03   0.00000000000000E+00   0.00000000000000E+00   1.46247904100584E-09   3.50337123513493E-34
      1.46247904100584E-09   4.30632943188625E-18
      1.27757077255497E-01
      0.00000000000000E+00   3.34660609956900E-10   0.00000000000000E+00   0.00000000000000E+00  -1.55741121772321E-09
      4.56311373474366E-34  -1.55741121772321E-09   4.54397447113225E-18   0.00000000000000E+00   0.00000000000000E+00
      0.00000000000000E+00   0.00000000000000E+00   0.00000000000000E+00   0.00000000000000E+00   0.00000000000000E+00
      1.75901219414233E-18   0.00000000000000E+00   0.00000000000000E+00   0.00000000000000E+00   0.00000000000000E+00
      1.47129085019758E-16  -7.93656308525875E-34   1.47129085019758E-16  -1.06155469327799E-17   6.38785386277483E-03
      6.38785352745264E-03   0.00000000000000E+00   0.00000000000000E+00   1.55741107059412E-09   3.37344935051508E-34
      1.55741107059412E-09   4.31256026750526E-18
      1.37757077255497E-01
      0.00000000000000E+00   3.54221111332938E-10   0.00000000000000E+00   0.00000000000000E+00  -1.64841406989648E-09
      4.51180264312836E-34  -1.64841406989648E-09   4.54373041956892E-18   0.00000000000000E+00   0.00000000000000E+00
      0.00000000000000E+00   0.00000000000000E+00   0.00000000000000E+00   0.00000000000000E+00   0.00000000000000E+00
      1.75266009004007E-18   0.00000000000000E+00   0.00000000000000E+00   0.00000000000000E+00   0.00000000000000E+00
     -3.14593963938640E-22  -7.83698032786128E-34  -3.14593963939424E-22  -1.06151828718111E-17   6.88785386277483E-03
      6.88785350785370E-03   0.00000000000000E+00   0.00000000000000E+00   1.64841406989680E-09   3.32517768473292E-34
      1.64841406989680E-09   4.31879236220209E-18
      1.47757077255497E-01
      0.00000000000000E+00   3.72967995899453E-10   0.00000000000000E+00   0.00000000000000E+00  -1.73562921715482E-09
      4.68922060598882E-34  -1.73562921715482E-09   4.54348640167674E-18   0.00000000000000E+00   0.00000000000000E+00
      0.00000000000000E+00   0.00000000000000E+00   0.00000000000000E+00   0.00000000000000E+00   0.00000000000000E+00
      1.74630875074335E-18   0.00000000000000E+00   0.00000000000000E+00   0.00000000000000E+00   0.00000000000000E+00
      1.34250722848218E-16  -8.02967317665885E-34   1.34250722848218E-16  -1.06148208626535E-17   7.38785386277483E-03
      7.38785348906988E-03   0.00000000000000E+00   0.00000000000000E+00   1.73562908290409E-09   3.34045257067002E-34
      1.73562908290409E-09   4.32502571023340E-18
      1.57757077255497E-01
      0.00000000000000E+00   3.90930769628686E-10   0.00000000000000E+00   0.00000000000000E+00  -1.81919381265902E-09
      4.77421613979599E-34  -1.81919381265902E-09   4.54324241717111E-18   0.00000000000000E+00   0.00000000000000E+00
      0.00000000000000E+00   0.00000000000000E+00   0.00000000000000E+00   0.00000000000000E+00   0.00000000000000E+00
      1.73995817074672E-18   0.00000000000000E+00   0.00000000000000E+00   0.00000000000000E+00   0.00000000000000E+00
      1.31533692129220E-16  -8.00898359182944E-34   1.31533692129220E-16  -1.06144608938169E-17   7.88785386277484E-03
      7.88785347107185E-03   0.00000000000000E+00   0.00000000000000E+00   1.81919368112533E-09   3.23476745203344E-34
      1.81919368112533E-09   4.33126030589909E-18
      1.67757077255497E-01
      0.00000000000000E+00   4.08138330163231E-10   0.00000000000000E+00   0.00000000000000E+00  -1.89924293312744E-09
      4.79843449604331E-34  -1.89924293312744E-09   4.54299846576204E-18   0.00000000000000E+00   0.00000000000000E+00
      0.00000000000000E+00   0.00000000000000E+00   0.00000000000000E+00   0.00000000000000E+00   0.00000000000000E+00
      1.73360834449532E-18   0.00000000000000E+00   0.00000000000000E+00   0.00000000000000E+00   0.00000000000000E+00
      8.55399279918979E-17  -8.07290225725377E-34   8.55399279918979E-17  -1.06141029537397E-17   8.38785386277484E-03
      8.38785345383055E-03   0.00000000000000E+00   0.00000000000000E+00   1.89924284758751E-09   3.27446776121046E-34
      1.89924284758751E-09   4.33749614348229E-18
      1.77757077255497E-01
      0.00000000000000E+00   4.24618809772873E-10   0.00000000000000E+00   0.00000000000000E+00  -1.97590791783144E-09
      4.49572768162087E-34  -1.97590791783144E-09   4.54275454716265E-18   0.00000000000000E+00   0.00000000000000E+00
      0.00000000000000E+00   0.00000000000000E+00   0.00000000000000E+00   0.00000000000000E+00   0.00000000000000E+00
      1.72725926653023E-18   0.00000000000000E+00   0.00000000000000E+00   0.00000000000000E+00   0.00000000000000E+00
      1.25896107049389E-16  -7.67469744188216E-34   1.25896107049389E-16  -1.06137470310270E-17   8.88785386277484E-03
      8.88785343731773E-03   0.00000000000000E+00   0.00000000000000E+00   1.97590779193533E-09   3.17896976026129E-34
      1.97590779193533E-09   4.34373321733406E-18
      1.87757077255497E-01
      0.00000000000000E+00   4.40399651324922E-10   0.00000000000000E+00   0.00000000000000E+00  -2.04931679552718E-09
      4.75226057832230E-34  -2.04931679552718E-09   4.54251066108306E-18   0.00000000000000E+00   0.00000000000000E+00
      0.00000000000000E+00   0.00000000000000E+00   0.00000000000000E+00   0.00000000000000E+00   0.00000000000000E+00
      1.72091093136726E-18   0.00000000000000E+00   0.00000000000000E+00   0.00000000000000E+00   0.00000000000000E+00
      1.34673670073141E-16  -7.89339382763039E-34   1.34673670073141E-16  -1.06133931142527E-17   9.38785386277484E-03
      9.38785342150596E-03   0.00000000000000E+00   0.00000000000000E+00   2.04931666085351E-09   3.14113324930808E-34
      2.04931666085351E-09   4.34997152180233E-18
      1.97757077255497E-01
      0.00000000000000E+00   4.55507482989856E-10   0.00000000000000E+00   0.00000000000000E+00  -2.11959375357545E-09