DF-ISE text

Info {
  version   = 1.0
  type      = xyplot
  datasets  = [
    "time"
    "source OuterVoltage" "source InnerVoltage" "source QuasiFermiPotential" "source DisplacementCurrent" "source eCurrent"
    "source hCurrent" "source TotalCurrent" "source Charge" "gate OuterVoltage" "gate InnerVoltage"
    "gate QuasiFermiPotential" "gate DisplacementCurrent" "gate eCurrent" "gate hCurrent" "gate TotalCurrent"
    "gate Charge" "substrate OuterVoltage" "substrate InnerVoltage" "substrate QuasiFermiPotential" "substrate DisplacementCurrent"
    "substrate eCurrent" "substrate hCurrent" "substrate TotalCurrent" "substrate Charge" "drain OuterVoltage"
    "drain InnerVoltage" "drain QuasiFermiPotential" "drain DisplacementCurrent" "drain eCurrent" "drain hCurrent"
    "drain TotalCurrent" "drain Charge" ]
  functions = [
    Time
    OuterVoltage InnerVoltage QuasiFermiPotential DisplacementCurrent eCurrent
    hCurrent TotalCurrent Charge OuterVoltage InnerVoltage
    QuasiFermiPotential DisplacementCurrent eCurrent hCurrent TotalCurrent
    Charge OuterVoltage InnerVoltage QuasiFermiPotential DisplacementCurrent
    eCurrent hCurrent TotalCurrent Charge OuterVoltage
    InnerVoltage QuasiFermiPotential DisplacementCurrent eCurrent hCurrent
    TotalCurrent Charge ]
}

Data {
      0.00000000000000E+00
      0.00000000000000E+00   0.00000000000000E+00   0.00000000000000E+00   0.00000000000000E+00   2.30183333304570E-21
      4.54291415939052E-34   2.30183333304615E-21   4.63382632293030E-18   0.00000000000000E+00   0.00000000000000E+00
      0.00000000000000E+00   0.00000000000000E+00   0.00000000000000E+00   0.00000000000000E+00   0.00000000000000E+00
      1.86642713028677E-18   0.00000000000000E+00   0.00000000000000E+00   0.00000000000000E+00   0.00000000000000E+00
     -9.05422806655994E-21  -8.86264384734771E-34  -9.05422806656083E-21  -1.08181433528287E-17   0.00000000000000E+00
      0.00000000000000E+00   0.00000000000000E+00   0.00000000000000E+00   6.75239473351425E-21   4.31972968795718E-34
      6.75239473351468E-21   4.31788989961156E-18
      0.00000000000000E+00
      0.00000000000000E+00   0.00000000000000E+00   0.00000000000000E+00   0.00000000000000E+00  -9.89837900624701E-20
      4.79266998839225E-34  -9.89837900624697E-20   4.63230656603725E-18   0.00000000000000E+00   0.00000000000000E+00
      0.00000000000000E+00   0.00000000000000E+00   0.00000000000000E+00   0.00000000000000E+00   0.00000000000000E+00
      1.86179998591570E-18   0.00000000000000E+00   0.00000000000000E+00   0.00000000000000E+00   0.00000000000000E+00
      5.39483246625042E-20  -9.18745107648449E-34   5.39483246625033E-20  -1.08107311665069E-17   0.00000000000000E+00
      0.00000000000000E+00   0.00000000000000E+00   0.00000000000000E+00   4.50354653999660E-20   4.39478108809222E-34
      4.50354653999664E-20   4.31662461455396E-18
      1.00000000000000E-03
      0.00000000000000E+00   5.40700927705998E-11   0.00000000000000E+00   0.00000000000000E+00  -2.53435375460543E-10
      4.55481574718482E-34  -2.53435375460543E-10   4.63186296763898E-18   0.00000000000000E+00   0.00000000000000E+00
      0.00000000000000E+00   0.00000000000000E+00   0.00000000000000E+00   0.00000000000000E+00   0.00000000000000E+00
      1.85081550858445E-18   0.00000000000000E+00   0.00000000000000E+00   0.00000000000000E+00   0.00000000000000E+00
      1.12306065814959E-19  -8.78022886515877E-34   1.12306065814959E-19  -1.08100681528219E-17   8.60000000000000E-04
      8.59999946194741E-04   0.00000000000000E+00   0.00000000000000E+00   2.53435375348236E-10   4.22541311797393E-34
      2.53435375348236E-10   4.32738967659845E-18
      2.08666666666667E-03
      0.00000000000000E+00   1.09102917757418E-10   0.00000000000000E+00   0.00000000000000E+00  -5.11366067118082E-10
      4.56345444736066E-34  -5.11366067118082E-10   4.63138104829666E-18   0.00000000000000E+00   0.00000000000000E+00
      0.00000000000000E+00   0.00000000000000E+00   0.00000000000000E+00   0.00000000000000E+00   0.00000000000000E+00
      1.83888181055980E-18   0.00000000000000E+00   0.00000000000000E+00   0.00000000000000E+00   0.00000000000000E+00
      1.98746053345206E-15  -8.69612097070406E-34   1.98746053345206E-15  -1.08093550051477E-17   1.79453333333333E-03
      1.79453322476545E-03   0.00000000000000E+00   0.00000000000000E+00   5.11364079657549E-10   4.13266652334339E-34
      5.11364079657549E-10   4.33909214629119E-18
      3.28200000000000E-03
      0.00000000000000E+00   1.65234333487823E-10   0.00000000000000E+00   0.00000000000000E+00  -7.74422432464501E-10
      4.63873624688723E-34  -7.74422432464501E-10   4.63085108528415E-18   0.00000000000000E+00   0.00000000000000E+00
      0.00000000000000E+00   0.00000000000000E+00   0.00000000000000E+00   0.00000000000000E+00   0.00000000000000E+00
      1.82575802657515E-18   0.00000000000000E+00   0.00000000000000E+00   0.00000000000000E+00   0.00000000000000E+00
      5.62257586723193E-21  -8.60712764053635E-34   5.62257586723106E-21  -1.08085792634863E-17   2.82252000000000E-03
      2.82251983557712E-03   0.00000000000000E+00   0.00000000000000E+00   7.74422432458878E-10   3.96839139364912E-34
      7.74422432458878E-10   4.35197015162700E-18
      4.58889777777778E-03
      0.00000000000000E+00   2.21576752981472E-10   0.00000000000000E+00   0.00000000000000E+00  -1.03844143174767E-09
      4.60945739903390E-34  -1.03844143174767E-09   4.63027183451164E-18   0.00000000000000E+00   0.00000000000000E+00
      0.00000000000000E+00   0.00000000000000E+00   0.00000000000000E+00   0.00000000000000E+00   0.00000000000000E+00
      1.81141323493495E-18   0.00000000000000E+00   0.00000000000000E+00   0.00000000000000E+00   0.00000000000000E+00
     -2.69296021197821E-19  -8.35328681973874E-34  -2.69296021197822E-19  -1.08077414536655E-17   3.94645208888889E-03
      3.94645186840179E-03   0.00000000000000E+00   0.00000000000000E+00   1.03844143201696E-09   3.74382942070484E-34
      1.03844143201696E-09   4.36605638421896E-18
      6.01777268148148E-03
      0.00000000000000E+00   2.77554062203306E-10   0.00000000000000E+00   0.00000000000000E+00  -1.30072164269253E-09
      4.73548802188885E-34  -1.30072164269253E-09   4.62963872667343E-18   0.00000000000000E+00   0.00000000000000E+00
      0.00000000000000E+00   0.00000000000000E+00   0.00000000000000E+00   0.00000000000000E+00   0.00000000000000E+00
      1.79573415798401E-18   0.00000000000000E+00   0.00000000000000E+00   0.00000000000000E+00   0.00000000000000E+00
     -2.85042473601758E-19  -8.47337646089481E-34  -2.85042473601759E-19  -1.08068376461289E-17   5.17528450607408E-03
      5.17528422988688E-03   0.00000000000000E+00   0.00000000000000E+00   1.30072164297757E-09   3.73788843900594E-34
      1.30072164297757E-09   4.38146476147151E-18
      7.58000924286420E-03
      0.00000000000000E+00   3.32557142935962E-10   0.00000000000000E+00   0.00000000000000E+00  -1.55840961436867E-09
      4.59796958958648E-34  -1.55840961436867E-09   4.62894677077257E-18   0.00000000000000E+00   0.00000000000000E+00
      0.00000000000000E+00   0.00000000000000E+00   0.00000000000000E+00   0.00000000000000E+00   0.00000000000000E+00
      1.77859705835957E-18   0.00000000000000E+00   0.00000000000000E+00   0.00000000000000E+00   0.00000000000000E+00
     -6.67365212756026E-20  -8.19465434385891E-34  -6.67365212756035E-20  -1.08058638648939E-17   6.51880794886321E-03
      6.51880761794613E-03   0.00000000000000E+00   0.00000000000000E+00   1.55840961443540E-09   3.59668475427243E-34
      1.55840961443540E-09   4.39832003576176E-18
      9.28805454997597E-03
      0.00000000000000E+00   3.85956348543254E-10   0.00000000000000E+00   0.00000000000000E+00  -1.80855830262733E-09
      4.84192064032204E-34  -1.80855830262733E-09   4.62819051530325E-18   0.00000000000000E+00   0.00000000000000E+00
      0.00000000000000E+00   0.00000000000000E+00   0.00000000000000E+00   0.00000000000000E+00   0.00000000000000E+00
      1.75986677673791E-18   0.00000000000000E+00   0.00000000000000E+00   0.00000000000000E+00   0.00000000000000E+00
      2.23900376428449E-20  -8.15078629034312E-34   2.23900376428441E-20  -1.08048161301932E-17   7.98772691297934E-03
      7.98772652892897E-03   0.00000000000000E+00   0.00000000000000E+00   1.80855830260494E-09   3.30886565002107E-34
      1.80855830260494E-09   4.41675883815207E-18
      1.11555174190848E-02
      0.00000000000000E+00   4.37118383240778E-10   0.00000000000000E+00   0.00000000000000E+00  -2.04820685522905E-09
      4.82742402569269E-34  -2.04820685522905E-09   4.62736400591459E-18   0.00000000000000E+00   0.00000000000000E+00
      0.00000000000000E+00   0.00000000000000E+00   0.00000000000000E+00   0.00000000000000E+00   0.00000000000000E+00
      1.73939568424232E-18   0.00000000000000E+00   0.00000000000000E+00   0.00000000000000E+00   0.00000000000000E+00
     -1.71749116237185E-19  -7.98187252389428E-34  -1.71749116237186E-19  -1.08036905154473E-17   9.59374498041296E-03
      9.59374454545589E-03   0.00000000000000E+00   0.00000000000000E+00   2.04820685540079E-09   3.15444849820159E-34
      2.04820685540079E-09   4.43693082529036E-18
      1.31972768226439E-02
      0.00000000000000E+00   4.85430037240135E-10   0.00000000000000E+00   0.00000000000000E+00  -2.27449230628025E-09
      4.76219735400201E-34  -2.27449230628025E-09   4.62646073909059E-18   0.00000000000000E+00   0.00000000000000E+00
      0.00000000000000E+00   0.00000000000000E+00   0.00000000000000E+00   0.00000000000000E+00   0.00000000000000E+00
      1.71702253708012E-18   0.00000000000000E+00   0.00000000000000E+00   0.00000000000000E+00   0.00000000000000E+00
      1.66038600596573E-20  -7.75375923178994E-34   1.66038600596565E-20  -1.08024832143070E-17   1.13496580674737E-02
      1.13496575844465E-02   0.00000000000000E+00   0.00000000000000E+00   2.27449230626365E-09   2.99156187778792E-34
      2.27449230626365E-09   4.45899993813629E-18
      1.54296004372017E-02
      0.00000000000000E+00   5.30327250567997E-10   0.00000000000000E+00   0.00000000000000E+00  -2.48478584158063E-09
      4.65602628348423E-34  -2.48478584158063E-09   4.62547361149334E-18   0.00000000000000E+00   0.00000000000000E+00
      0.00000000000000E+00   0.00000000000000E+00   0.00000000000000E+00   0.00000000000000E+00   0.00000000000000E+00
      1.69257122506887E-18   0.00000000000000E+00   0.00000000000000E+00   0.00000000000000E+00   0.00000000000000E+00
     -6.37392678282442E-20  -7.43690562342036E-34  -6.37392678282449E-20  -1.08011906203280E-17   1.32694563759935E-02
      1.32694558482935E-02   0.00000000000000E+00   0.00000000000000E+00   2.48478584164437E-09   2.78087933993612E-34
      2.48478584164437E-09   4.48314578376583E-18
      1.78702742557850E-02
      0.00000000000000E+00   5.71328232614359E-10   0.00000000000000E+00   0.00000000000000E+00  -2.67684846341206E-09
      4.69732413448404E-34  -2.67684846341206E-09   4.62439486447882E-18   0.00000000000000E+00   0.00000000000000E+00
      0.00000000000000E+00   0.00000000000000E+00   0.00000000000000E+00   0.00000000000000E+00   0.00000000000000E+00
      1.66584940386039E-18   0.00000000000000E+00   0.00000000000000E+00   0.00000000000000E+00   0.00000000000000E+00
      1.28442052024826E-19  -7.23132910463014E-34   1.28442052024825E-19  -1.07998094202299E-17   1.53684358599751E-02
      1.53684352914788E-02   0.00000000000000E+00   0.00000000000000E+00   2.67684846328361E-09   2.53400497014610E-34
      2.67684846328361E-09   4.50956515189065E-18
      2.05387442974361E-02
      0.00000000000000E+00   6.08069978816015E-10   0.00000000000000E+00   0.00000000000000E+00  -2.84900205512998E-09
      4.78817832468693E-34  -2.84900205512998E-09   4.62321602334125E-18   0.00000000000000E+00   0.00000000000000E+00
      0.00000000000000E+00   0.00000000000000E+00   0.00000000000000E+00   0.00000000000000E+00   0.00000000000000E+00
      1.63664699936535E-18   0.00000000000000E+00   0.00000000000000E+00   0.00000000000000E+00   0.00000000000000E+00
     -1.48629356271203E-19  -7.17962116184088E-34  -1.48629356271204E-19  -1.07983367020445E-17   1.76633200957950E-02
      1.76633194907396E-02   0.00000000000000E+00   0.00000000000000E+00   2.84900205527861E-09   2.39144283715395E-34
      2.84900205527861E-09   4.53847367933792E-18
      2.34562715429746E-02
      0.00000000000000E+00   6.40346171171405E-10   0.00000000000000E+00   0.00000000000000E+00  -3.00030662920853E-09
      4.82115976337531E-34  -3.00030662920853E-09   4.62192783077277E-18   0.00000000000000E+00   0.00000000000000E+00
      0.00000000000000E+00   0.00000000000000E+00   0.00000000000000E+00   0.00000000000000E+00   0.00000000000000E+00
      1.60473457194455E-18   0.00000000000000E+00   0.00000000000000E+00   0.00000000000000E+00   0.00000000000000E+00
     -8.30584421907772E-20  -6.97759203427065E-34  -8.30584421907779E-20  -1.07967700794077E-17   2.01723935269581E-02
      2.01723928897857E-02   0.00000000000000E+00   0.00000000000000E+00   3.00030662929159E-09   2.15643227089534E-34
      3.00030662929159E-09   4.57010767669037E-18
      2.66461013314300E-02
      0.00000000000000E+00   6.68143969338246E-10   0.00000000000000E+00   0.00000000000000E+00  -3.13073244038692E-09
      4.73581383959575E-34  -3.13073244038692E-09   4.62052017384548E-18   0.00000000000000E+00   0.00000000000000E+00
      0.00000000000000E+00   0.00000000000000E+00   0.00000000000000E+00   0.00000000000000E+00   0.00000000000000E+00
      1.56986152464336E-18   0.00000000000000E+00   0.00000000000000E+00   0.00000000000000E+00   0.00000000000000E+00
     -3.87794495680274E-20  -6.69249452596394E-34  -3.87794495680280E-20  -1.07951078302137E-17   2.29156471450298E-02
      2.29156464801947E-02   0.00000000000000E+00   0.00000000000000E+00   3.13073244042570E-09   1.95668068636819E-34
      3.13073244042570E-09   4.60472613172489E-18
      3.01336485668079E-02
      0.00000000000000E+00   6.91674933748492E-10   0.00000000000000E+00   0.00000000000000E+00  -3.24130369855302E-09
      4.63377588165361E-34  -3.24130369855302E-09   4.61898200383038E-18   0.00000000000000E+00   0.00000000000000E+00
      0.00000000000000E+00   0.00000000000000E+00   0.00000000000000E+00   0.00000000000000E+00   0.00000000000000E+00
      1.53175413830300E-18   0.00000000000000E+00   0.00000000000000E+00   0.00000000000000E+00   0.00000000000000E+00
     -3.98359448979941E-20  -6.42394078996323E-34  -3.98359448979948E-20  -1.07933490471772E-17   2.59149377674548E-02
      2.59149370792011E-02   0.00000000000000E+00   0.00000000000000E+00   3.24130369859285E-09   1.79016490830962E-34
      3.24130369859285E-09   4.64261290504380E-18
      3.39467002108211E-02
      0.00000000000000E+00   7.11393023816659E-10   0.00000000000000E+00   0.00000000000000E+00  -3.33418114683683E-09
      4.87030148676079E-34  -3.33418114683683E-09   4.61730124823606E-18   0.00000000000000E+00   0.00000000000000E+00
      0.00000000000000E+00   0.00000000000000E+00   0.00000000000000E+00   0.00000000000000E+00   0.00000000000000E+00
      1.49011341698005E-18   0.00000000000000E+00   0.00000000000000E+00   0.00000000000000E+00   0.00000000000000E+00
      2.63731456272823E-19  -6.48878223190830E-34   2.63731456272822E-19  -1.07914938020229E-17   2.91941621813061E-02
      2.91941614734262E-02   0.00000000000000E+00   0.00000000000000E+00   3.33418114657310E-09   1.61848074514751E-34
      3.33418114657310E-09   4.68407913680675E-18
      3.81156366749421E-02
      0.00000000000000E+00   7.27993776937474E-10   0.00000000000000E+00   0.00000000000000E+00  -3.41265563608514E-09
      4.75536085952201E-34  -3.41265563608514E-09   4.61546471431132E-18   0.00000000000000E+00   0.00000000000000E+00
      0.00000000000000E+00   0.00000000000000E+00   0.00000000000000E+00   0.00000000000000E+00   0.00000000000000E+00
      1.44461272154462E-18   0.00000000000000E+00   0.00000000000000E+00   0.00000000000000E+00   0.00000000000000E+00
      9.86199362935227E-19  -6.11880626272540E-34   9.86199362935227E-19  -1.07895433183181E-17   3.27794475404502E-02
      3.27794468160451E-02   0.00000000000000E+00   0.00000000000000E+00   3.41265563509894E-09   1.36344540320339E-34
      3.41265563509894E-09   4.72946588246219E-18
      4.26736738757145E-02
      0.00000000000000E+00   7.42385792375062E-10   0.00000000000000E+00   0.00000000000000E+00  -3.48101451310135E-09
      4.67908351931464E-34  -3.48101451310135E-09   4.61345798360662E-18   0.00000000000000E+00   0.00000000000000E+00
      0.00000000000000E+00   0.00000000000000E+00   0.00000000000000E+00   0.00000000000000E+00   0.00000000000000E+00
      1.39489517215831E-18   0.00000000000000E+00   0.00000000000000E+00   0.00000000000000E+00   0.00000000000000E+00
      1.29101042254950E-17  -5.88332467754472E-34   1.29101042254950E-17  -1.07875001519501E-17   3.66993595331145E-02
      3.66993587943821E-02   0.00000000000000E+00   0.00000000000000E+00   3.48101450019124E-09   1.20424115823008E-34
      3.48101450019124E-09   4.77914699618517E-18
      4.76571278818923E-02
      0.00000000000000E+00   7.55618090476249E-10   0.00000000000000E+00   0.00000000000000E+00  -3.54420288710545E-09
      4.74922343579048E-34  -3.54420288710545E-09   4.61126529830498E-18   0.00000000000000E+00   0.00000000000000E+00
      0.00000000000000E+00   0.00000000000000E+00   0.00000000000000E+00   0.00000000000000E+00   0.00000000000000E+00
      1.34057080993215E-18   0.00000000000000E+00   0.00000000000000E+00   0.00000000000000E+00   0.00000000000000E+00
      2.32215478537375E-18  -5.80434988483209E-34   2.32215478537375E-18  -1.07853683943202E-17   4.09851299784274E-02
      4.09851292265237E-02   0.00000000000000E+00   0.00000000000000E+00   3.54420288478330E-09   1.05512644904161E-34
      3.54420288478330E-09   4.83353228608313E-18
      5.31057042619801E-02
      0.00000000000000E+00   7.68736710554102E-10   0.00000000000000E+00   0.00000000000000E+00  -3.60714407735742E-09
      4.72549804639723E-34  -3.60714407735742E-09   4.60886943930334E-18   0.00000000000000E+00   0.00000000000000E+00
      0.00000000000000E+00   0.00000000000000E+00   0.00000000000000E+00   0.00000000000000E+00   0.00000000000000E+00
      1.28121349174207E-18   0.00000000000000E+00   0.00000000000000E+00   0.00000000000000E+00   0.00000000000000E+00
      2.13864135509973E-18  -5.59307815826316E-34   2.13864135509973E-18  -1.07831538914201E-17   4.56709056653029E-02
      4.56709049003445E-02   0.00000000000000E+00   0.00000000000000E+00   3.60714407521877E-09   8.67580111865927E-35
      3.60714407521877E-09   4.89307096037473E-18
      5.90628144375427E-02
      0.00000000000000E+00   7.82606879875686E-10   0.00000000000000E+00   0.00000000000000E+00  -3.67388615486508E-09
      4.49646049744608E-34  -3.67388615486508E-09   4.60625159357708E-18   0.00000000000000E+00   0.00000000000000E+00
      0.00000000000000E+00   0.00000000000000E+00   0.00000000000000E+00   0.00000000000000E+00   0.00000000000000E+00
      1.21635750625035E-18   0.00000000000000E+00   0.00000000000000E+00   0.00000000000000E+00   0.00000000000000E+00
     -6.34806412920240E-20  -5.22802452403895E-34  -6.34806412920245E-20  -1.07808644902879E-17   5.07940204162867E-02
      5.07940196375317E-02   0.00000000000000E+00   0.00000000000000E+00   3.67388615492856E-09   7.31564026592876E-35
      3.67388615492856E-09   4.95825539046051E-18
      6.55362074949873E-02
      0.00000000000000E+00   7.97761008381872E-10   0.00000000000000E+00   0.00000000000000E+00  -3.74689348497242E-09
      4.76549007826160E-34  -3.74689348497242E-09   4.60340864214496E-18   0.00000000000000E+00   0.00000000000000E+00
      0.00000000000000E+00   0.00000000000000E+00   0.00000000000000E+00   0.00000000000000E+00   0.00000000000000E+00
      1.14592581600829E-18   0.00000000000000E+00   0.00000000000000E+00   0.00000000000000E+00   0.00000000000000E+00
     -3.35964386179835E-20  -5.36958551359821E-34  -3.35964386179840E-20  -1.07785241795784E-17   5.63611384456891E-02
      5.63611376518666E-02   0.00000000000000E+00   0.00000000000000E+00   3.74689348500601E-09   6.04095435336606E-35
      3.74689348500601E-09   5.02918972142517E-18
      7.25706279507439E-02
      0.00000000000000E+00   8.14631590700054E-10   0.00000000000000E+00   0.00000000000000E+00  -3.82821065019617E-09
      4.68586480462423E-34  -3.82821065019617E-09   4.60032123280007E-18   0.00000000000000E+00   0.00000000000000E+00
      0.00000000000000E+00   0.00000000000000E+00   0.00000000000000E+00   0.00000000000000E+00   0.00000000000000E+00
      1.06943902992129E-18   0.00000000000000E+00   0.00000000000000E+00   0.00000000000000E+00   0.00000000000000E+00
     -1.79185847202917E-19  -5.17897433910396E-34  -1.79185847202917E-19  -1.07761451492856E-17   6.24107400376398E-02
      6.24107392270520E-02   0.00000000000000E+00   0.00000000000000E+00   3.82821065037535E-09   4.93109534479731E-35
      3.82821065037535E-09   5.10638488656429E-18
      8.02146981793327E-02
      0.00000000000000E+00   8.33473499896185E-10   0.00000000000000E+00   0.00000000000000E+00  -3.91907415387853E-09
      4.66119048519396E-34  -3.91907415387853E-09   4.59696836608257E-18   0.00000000000000E+00   0.00000000000000E+00
      0.00000000000000E+00   0.00000000000000E+00   0.00000000000000E+00   0.00000000000000E+00   0.00000000000000E+00
      9.86376493501712E-19   0.00000000000000E+00   0.00000000000000E+00   0.00000000000000E+00   0.00000000000000E+00
     -8.88480238827021E-21  -5.03857115980445E-34  -8.88480238827072E-21  -1.07737421096547E-17   6.89846404342261E-02
      6.89846396049231E-02   0.00000000000000E+00   0.00000000000000E+00   3.91907415388741E-09   3.77380674610485E-35
      3.91907415388741E-09   5.19039725007043E-18
      8.85212544943992E-02
      0.00000000000000E+00   8.54363822826284E-10   0.00000000000000E+00   0.00000000000000E+00  -4.01986328707597E-09
      4.79364228026492E-34  -4.01986328707597E-09   4.59332726406475E-18   0.00000000000000E+00   0.00000000000000E+00
      0.00000000000000E+00   0.00000000000000E+00   0.00000000000000E+00   0.00000000000000E+00   0.00000000000000E+00
      8.96172795163664E-19   0.00000000000000E+00   0.00000000000000E+00   0.00000000000000E+00   0.00000000000000E+00
     -1.26134048440952E-19  -5.08406914358370E-34  -1.26134048440953E-19  -1.07713326160587E-17   7.61282788651833E-02
      7.61282780151308E-02   0.00000000000000E+00   0.00000000000000E+00   4.01986328720210E-09   2.90426863318789E-35
      4.01986328720210E-09   5.28183255683030E-18
      9.75477123567714E-02
      0.00000000000000E+00   8.77378360520050E-10   0.00000000000000E+00   0.00000000000000E+00  -4.13096562256514E-09
      4.73871037249830E-34  -4.13096562256514E-09   4.58937320243216E-18   0.00000000000000E+00   0.00000000000000E+00
      0.00000000000000E+00   0.00000000000000E+00   0.00000000000000E+00   0.00000000000000E+00   0.00000000000000E+00
      7.98213828662565E-19   0.00000000000000E+00   0.00000000000000E+00   0.00000000000000E+00   0.00000000000000E+00
     -4.78388866637144E-20  -4.96922448276721E-34  -4.78388866637149E-20  -1.07689372115733E-17   8.38910326268234E-02
      8.38910317539071E-02   0.00000000000000E+00   0.00000000000000E+00   4.13096562261298E-09   2.30514110268924E-35
      4.13096562261298E-09   5.38135018047856E-18
      1.07356463233883E-01
      0.00000000000000E+00   9.02745293386671E-10   0.00000000000000E+00   0.00000000000000E+00  -4.25352412574373E-09
      4.62320576600097E-34  -4.25352412574373E-09   4.58507932459806E-18   0.00000000000000E+00   0.00000000000000E+00
      0.00000000000000E+00   0.00000000000000E+00   0.00000000000000E+00   0.00000000000000E+00   0.00000000000000E+00
      6.91832437025024E-19   0.00000000000000E+00   0.00000000000000E+00   0.00000000000000E+00   0.00000000000000E+00
      1.21543963221901E-19  -4.78633066263516E-34   1.21543963221901E-19  -1.07665794776083E-17   9.23265583811390E-02
      9.23265574830241E-02   0.00000000000000E+00   0.00000000000000E+00   4.25352412562218E-09   1.63124896634199E-35
      4.25352412562218E-09   5.48966771598528E-18
      1.17356463233883E-01
      0.00000000000000E+00   9.29080681964718E-10   0.00000000000000E+00   0.00000000000000E+00  -4.38087968820435E-09
      4.63716683814460E-34  -4.38087968820435E-09   4.58070459603132E-18   0.00000000000000E+00   0.00000000000000E+00
      0.00000000000000E+00   0.00000000000000E+00   0.00000000000000E+00   0.00000000000000E+00   0.00000000000000E+00
      5.83442807390626E-19   0.00000000000000E+00   0.00000000000000E+00   0.00000000000000E+00   0.00000000000000E+00
     -1.47400815928295E-19  -4.75622441385504E-34  -1.47400815928295E-19  -1.07644202744760E-17   1.00926558381139E-01
      1.00926557456875E-01   0.00000000000000E+00   0.00000000000000E+00   4.38087968835175E-09   1.19057575710444E-35
      4.38087968835175E-09   5.60027287105410E-18
      1.27356463233883E-01
      0.00000000000000E+00   9.55987897556706E-10   0.00000000000000E+00   0.00000000000000E+00  -4.51111418252972E-09
      4.45666020201056E-34  -4.51111418252972E-09   4.57633259527458E-18   0.00000000000000E+00   0.00000000000000E+00
      0.00000000000000E+00   0.00000000000000E+00   0.00000000000000E+00   0.00000000000000E+00   0.00000000000000E+00
      4.75114238130970E-19   0.00000000000000E+00   0.00000000000000E+00   0.00000000000000E+00   0.00000000000000E+00
     -2.11813147136558E-19  -4.54959961493441E-34  -2.11813147136558E-19  -1.07624906734926E-17   1.09526558381139E-01
      1.09526557430167E-01   0.00000000000000E+00   0.00000000000000E+00   4.51111418274154E-09   9.29394129238533E-36
      4.51111418274154E-09   5.71104384008704E-18
      1.37356463233883E-01
      0.00000000000000E+00   9.83530994586461E-10   0.00000000000000E+00   0.00000000000000E+00  -4.64453415552184E-09
      4.70837794355616E-34  -4.64453415552184E-09   4.57196318066810E-18   0.00000000000000E+00   0.00000000000000E+00
      0.00000000000000E+00   0.00000000000000E+00   0.00000000000000E+00   0.00000000000000E+00   0.00000000000000E+00
      3.66841950169618E-19   0.00000000000000E+00   0.00000000000000E+00   0.00000000000000E+00   0.00000000000000E+00
      7.13162745066971E-20  -4.77648778355420E-34   7.13162745066966E-20  -1.07607750461721E-17   1.18126558381139E-01
      1.18126557402827E-01   0.00000000000000E+00   0.00000000000000E+00   4.64453415545052E-09   6.81098399980514E-36
      4.64453415545052E-09   5.82196991533440E-18
      1.47356463233883E-01
      0.00000000000000E+00   1.01174056855205E-09   0.00000000000000E+00   0.00000000000000E+00  -4.78128494980514E-09
      4.56000101236169E-34  -4.78128494980514E-09   4.56759622567546E-18   0.00000000000000E+00   0.00000000000000E+00
      0.00000000000000E+00   0.00000000000000E+00   0.00000000000000E+00   0.00000000000000E+00   0.00000000000000E+00
      2.58621789756169E-19   0.00000000000000E+00   0.00000000000000E+00   0.00000000000000E+00   0.00000000000000E+00
     -2.86502318311178E-19  -4.61037593840572E-34  -2.86502318311179E-19  -1.07592592150113E-17   1.26726558381139E-01
      1.26726557374821E-01   0.00000000000000E+00   0.00000000000000E+00   4.78128495009164E-09   5.03749260440358E-36
      4.78128495009164E-09   5.93304119957965E-18
      1.57356463233883E-01
      0.00000000000000E+00   1.04062192348705E-09   0.00000000000000E+00   0.00000000000000E+00  -4.92139201544180E-09
      4.79110188333261E-34  -4.92139201544180E-09   4.56323161474355E-18   0.00000000000000E+00   0.00000000000000E+00
      0.00000000000000E+00   0.00000000000000E+00   0.00000000000000E+00   0.00000000000000E+00   0.00000000000000E+00
      1.50450087411246E-19   0.00000000000000E+00   0.00000000000000E+00   0.00000000000000E+00   0.00000000000000E+00
     -4.23145850582142E-19  -4.82860330577870E-34  -4.23145850582143E-19  -1.07579302230932E-17   1.35326558381139E-01
      1.35326557346141E-01   0.00000000000000E+00   0.00000000000000E+00   4.92139201586495E-09   3.75014224460928E-36
      4.92139201586495E-09   6.04424852093840E-18
      1.67356463233883E-01
      0.00000000000000E+00   1.07016890971427E-09   0.00000000000000E+00   0.00000000000000E+00  -5.06482574046162E-09
      4.60602354069036E-34  -5.06482574046162E-09   4.55886924170258E-18   0.00000000000000E+00   0.00000000000000E+00
      0.00000000000000E+00   0.00000000000000E+00   0.00000000000000E+00   0.00000000000000E+00   0.00000000000000E+00
      4.23235702221942E-20   0.00000000000000E+00   0.00000000000000E+00   0.00000000000000E+00   0.00000000000000E+00
     -3.56002420436680E-19  -4.63273885768192E-34  -3.56002420436681E-19  -1.07567761747412E-17   1.43926558381139E-01
      1.43926557316794E-01   0.00000000000000E+00   0.00000000000000E+00   5.06482574081762E-09   2.67153169915674E-36
      5.06482574081762E-09   6.15558336281645E-18
      1.77356463233883E-01
      0.00000000000000E+00   1.10037451063180E-09   0.00000000000000E+00   0.00000000000000E+00  -5.21155465994953E-09
      4.80012065407286E-34  -5.21155465994953E-09   4.55450901066272E-18   0.00000000000000E+00   0.00000000000000E+00
      0.00000000000000E+00   0.00000000000000E+00   0.00000000000000E+00   0.00000000000000E+00   0.00000000000000E+00
     -6.57606618526578E-20   0.00000000000000E+00   0.00000000000000E+00   0.00000000000000E+00   0.00000000000000E+00
     -3.16145786558826E-19  -4.81987416861893E-34  -3.16145786558826E-19  -1.07557861598089E-17   1.52526558381139E-01
      1.52526557286792E-01   0.00000000000000E+00   0.00000000000000E+00   5.21155466026568E-09   1.97535145460665E-36
      5.21155466026568E-09   6.26703781099883E-18
      1.87356463233883E-01
      0.00000000000000E+00   1.13123728136512E-09   0.00000000000000E+00   0.00000000000000E+00  -5.36157589891474E-09