DF-ISE text

Info {
  version   = 1.0
  type      = xyplot
  datasets  = [
    "time"
    "source OuterVoltage" "source InnerVoltage" "source QuasiFermiPotential" "source DisplacementCurrent" "source eCurrent"
    "source hCurrent" "source TotalCurrent" "source Charge" "gate OuterVoltage" "gate InnerVoltage"
    "gate QuasiFermiPotential" "gate DisplacementCurrent" "gate eCurrent" "gate hCurrent" "gate TotalCurrent"
    "gate Charge" "substrate OuterVoltage" "substrate InnerVoltage" "substrate QuasiFermiPotential" "substrate DisplacementCurrent"
    "substrate eCurrent" "substrate hCurrent" "substrate TotalCurrent" "substrate Charge" "drain OuterVoltage"
    "drain InnerVoltage" "drain QuasiFermiPotential" "drain DisplacementCurrent" "drain eCurrent" "drain hCurrent"
    "drain TotalCurrent" "drain Charge" ]
  functions = [
    Time
    OuterVoltage InnerVoltage QuasiFermiPotential DisplacementCurrent eCurrent
    hCurrent TotalCurrent Charge OuterVoltage InnerVoltage
    QuasiFermiPotential DisplacementCurrent eCurrent hCurrent TotalCurrent
    Charge OuterVoltage InnerVoltage QuasiFermiPotential DisplacementCurrent
    eCurrent hCurrent TotalCurrent Charge OuterVoltage
    InnerVoltage QuasiFermiPotential DisplacementCurrent eCurrent hCurrent
    TotalCurrent Charge ]
}

Data {
      0.00000000000000E+00
      0.00000000000000E+00   0.00000000000000E+00   0.00000000000000E+00   0.00000000000000E+00   3.25867922905775E-20
     -1.17409508215413E-34   3.25867922905774E-20   4.19970625102642E-18   0.00000000000000E+00   0.00000000000000E+00
      0.00000000000000E+00   0.00000000000000E+00   0.00000000000000E+00   0.00000000000000E+00   0.00000000000000E+00
      3.25678168435960E-18   0.00000000000000E+00   0.00000000000000E+00   0.00000000000000E+00   0.00000000000000E+00
     -3.20544351318296E-20   2.44888097264273E-34  -3.20544351318294E-20  -1.08797790173404E-17   0.00000000000000E+00
      0.00000000000000E+00   0.00000000000000E+00   0.00000000000000E+00  -5.32357158747814E-22  -1.27478589048860E-34
     -5.32357158747942E-22   3.42329108195441E-18
      0.00000000000000E+00
      0.00000000000000E+00   0.00000000000000E+00   0.00000000000000E+00   0.00000000000000E+00   1.58458081062630E-19
     -1.17971422717453E-34   1.58458081062630E-19   4.19826293037388E-18   0.00000000000000E+00   0.00000000000000E+00
      0.00000000000000E+00   0.00000000000000E+00   0.00000000000000E+00   0.00000000000000E+00   0.00000000000000E+00
      3.25060357132012E-18   0.00000000000000E+00   0.00000000000000E+00   0.00000000000000E+00   0.00000000000000E+00
     -1.13378716080322E-19   2.43371803781642E-34  -1.13378716080322E-19  -1.08710190640449E-17   0.00000000000000E+00
      0.00000000000000E+00   0.00000000000000E+00   0.00000000000000E+00  -4.50793649823080E-20  -1.25400381064190E-34
     -4.50793649823082E-20   3.42215256235089E-18
      1.00000000000000E-03
      0.00000000000000E+00   4.29326197811247E-11   0.00000000000000E+00   0.00000000000000E+00  -1.60179413405643E-10
     -1.14707528946312E-34  -1.60179413405643E-10   4.19810717599724E-18   0.00000000000000E+00   0.00000000000000E+00
      0.00000000000000E+00   0.00000000000000E+00   0.00000000000000E+00   0.00000000000000E+00   0.00000000000000E+00
      3.24099800917949E-18   0.00000000000000E+00   0.00000000000000E+00   0.00000000000000E+00   0.00000000000000E+00
      2.35108435701049E-19   2.40475742316665E-34   2.35108435701050E-19  -1.08705064028541E-17   8.60000000000000E-04
      8.59999956905476E-04   0.00000000000000E+00   0.00000000000000E+00   1.60179413170535E-10  -1.25768213370353E-34
      1.60179413170535E-10   3.43140121767739E-18
      2.08666666666667E-03
      0.00000000000000E+00   8.69276777046481E-11   0.00000000000000E+00   0.00000000000000E+00  -3.24305103008754E-10
     -1.29091112186906E-34  -3.24305103008754E-10   4.19793797681279E-18   0.00000000000000E+00   0.00000000000000E+00
      0.00000000000000E+00   0.00000000000000E+00   0.00000000000000E+00   0.00000000000000E+00   0.00000000000000E+00
      3.23056344207985E-18   0.00000000000000E+00   0.00000000000000E+00   0.00000000000000E+00   0.00000000000000E+00
     -4.76750622340338E-19   2.43611322382109E-34  -4.76750622340338E-19  -1.08699571094652E-17   1.79453333333333E-03
      1.79453324607865E-03   0.00000000000000E+00   0.00000000000000E+00   3.24305103485505E-10  -1.14520210195203E-34
      3.24305103485505E-10   3.44145569057261E-18
      3.27475555555556E-03
      0.00000000000000E+00   1.31912339947111E-10   0.00000000000000E+00   0.00000000000000E+00  -4.92099692939738E-10
     -1.17145882689198E-34  -4.92099692939738E-10   4.19775304919855E-18   0.00000000000000E+00   0.00000000000000E+00
      0.00000000000000E+00   0.00000000000000E+00   0.00000000000000E+00   0.00000000000000E+00   0.00000000000000E+00
      3.21915905750983E-18   0.00000000000000E+00   0.00000000000000E+00   0.00000000000000E+00   0.00000000000000E+00
     -5.27407036761856E-20   2.41026017780300E-34  -5.27407036761854E-20  -1.08693657209728E-17   2.81628977777778E-03
      2.81628964537045E-03   0.00000000000000E+00   0.00000000000000E+00   4.92099692992479E-10  -1.23880135091103E-34
      4.92099692992479E-10   3.45245361426443E-18
      4.57373274074074E-03
      0.00000000000000E+00   1.77523630425953E-10   0.00000000000000E+00   0.00000000000000E+00  -6.62204601301413E-10
     -1.29652522875256E-34  -6.62204601301413E-10   4.19755093628054E-18   0.00000000000000E+00   0.00000000000000E+00
      0.00000000000000E+00   0.00000000000000E+00   0.00000000000000E+00   0.00000000000000E+00   0.00000000000000E+00
      3.20669504766941E-18   0.00000000000000E+00   0.00000000000000E+00   0.00000000000000E+00   0.00000000000000E+00
     -7.55762854389119E-19   2.50146406327031E-34  -7.55762854389119E-19  -1.08687299438381E-17   3.93341015703704E-03
      3.93340997884897E-03   0.00000000000000E+00   0.00000000000000E+00   6.62204602057175E-10  -1.20493883451775E-34
      6.62204602057175E-10   3.46448395988816E-18
      5.99394779654321E-03
      0.00000000000000E+00   2.23357149188424E-10   0.00000000000000E+00   0.00000000000000E+00  -8.33108039317061E-10
     -1.18249289265562E-34  -8.33108039317061E-10   4.19733004683373E-18   0.00000000000000E+00   0.00000000000000E+00
      0.00000000000000E+00   0.00000000000000E+00   0.00000000000000E+00   0.00000000000000E+00   0.00000000000000E+00
      3.19307333665277E-18   0.00000000000000E+00   0.00000000000000E+00   0.00000000000000E+00   0.00000000000000E+00
     -2.41323733249209E-19   2.25770467668816E-34  -2.41323733249209E-19  -1.08680475456308E-17   5.15479510502716E-03
      5.15479488083609E-03   0.00000000000000E+00   0.00000000000000E+00   8.33108039558385E-10  -1.07521178403254E-34
      8.33108039558385E-10   3.47764416214436E-18
      7.54671625755391E-03
      0.00000000000000E+00   2.68965494007704E-10   0.00000000000000E+00   0.00000000000000E+00  -1.00313899018204E-09
     -1.17199050699023E-34  -1.00313899018204E-09   4.19708864294924E-18   0.00000000000000E+00   0.00000000000000E+00
      0.00000000000000E+00   0.00000000000000E+00   0.00000000000000E+00   0.00000000000000E+00   0.00000000000000E+00
      3.17818682467168E-18   0.00000000000000E+00   0.00000000000000E+00   0.00000000000000E+00   0.00000000000000E+00
      4.95340481586866E-19   2.35050479562332E-34   4.95340481586866E-19  -1.08673164025703E-17   6.49017598149636E-03
      6.49017571152919E-03   0.00000000000000E+00   0.00000000000000E+00   1.00313898968670E-09  -1.17851428863309E-34
      1.00313898968670E-09   3.49204093494942E-18
      9.24440977492561E-03
      0.00000000000000E+00   3.13863431146920E-10   0.00000000000000E+00   0.00000000000000E+00  -1.17048703956934E-09
     -1.46387668911520E-34  -1.17048703956934E-09   4.19682482651753E-18   0.00000000000000E+00   0.00000000000000E+00
      0.00000000000000E+00   0.00000000000000E+00   0.00000000000000E+00   0.00000000000000E+00   0.00000000000000E+00
      3.16191856184320E-18   0.00000000000000E+00   0.00000000000000E+00   0.00000000000000E+00   0.00000000000000E+00
      7.61863807103234E-20   2.44102169695396E-34   7.61863807103236E-20  -1.08665345548677E-17   7.95019240643603E-03
      7.95019209140648E-03   0.00000000000000E+00   0.00000000000000E+00   1.17048703949315E-09  -9.77145007838761E-35
      1.17048703949315E-09   3.50779116650696E-18
      1.11005546872520E-02
      0.00000000000000E+00   3.57537139484601E-10   0.00000000000000E+00   0.00000000000000E+00  -1.33323696029476E-09
     -1.16595876235951E-34  -1.33323696029476E-09   4.19653652444592E-18   0.00000000000000E+00   0.00000000000000E+00
      0.00000000000000E+00   0.00000000000000E+00   0.00000000000000E+00   0.00000000000000E+00   0.00000000000000E+00
      3.14414084687445E-18   0.00000000000000E+00   0.00000000000000E+00   0.00000000000000E+00   0.00000000000000E+00
      2.89846594390164E-19   2.06398156447058E-34   2.89846594390164E-19  -1.08657002732135E-17   9.54647703103672E-03
      9.54647667217410E-03   0.00000000000000E+00   0.00000000000000E+00   1.33323696000492E-09  -8.98022802111071E-35
      1.33323696000492E-09   3.52502290189311E-18
      1.31299397913955E-02
      0.00000000000000E+00   3.99457822472850E-10   0.00000000000000E+00   0.00000000000000E+00  -1.48942050451173E-09
     -1.26192201428346E-34  -1.48942050451173E-09   4.19622147246192E-18   0.00000000000000E+00   0.00000000000000E+00
      0.00000000000000E+00   0.00000000000000E+00   0.00000000000000E+00   0.00000000000000E+00   0.00000000000000E+00
      3.12471424215283E-18   0.00000000000000E+00   0.00000000000000E+00   0.00000000000000E+00   0.00000000000000E+00
     -4.27445556038719E-19   2.29262725179327E-34  -4.27445556038719E-19  -1.08648121359637E-17   1.12917482206002E-02
      1.12917478196643E-02   0.00000000000000E+00   0.00000000000000E+00   1.48942050493918E-09  -1.03070523750980E-34
      1.48942050493918E-09   3.54387642134896E-18
      1.53487341719258E-02
      0.00000000000000E+00   4.39099868777128E-10   0.00000000000000E+00   0.00000000000000E+00  -1.63708429425329E-09
     -1.19152090084782E-34  -1.63708429425329E-09   4.19587719737049E-18   0.00000000000000E+00   0.00000000000000E+00
      0.00000000000000E+00   0.00000000000000E+00   0.00000000000000E+00   0.00000000000000E+00   0.00000000000000E+00
      3.10348649790961E-18   0.00000000000000E+00   0.00000000000000E+00   0.00000000000000E+00   0.00000000000000E+00
     -9.08518526695325E-20   2.04122207256884E-34  -9.08518526695323E-20  -1.08638691190630E-17   1.31999113878562E-02
      1.31999109471343E-02   0.00000000000000E+00   0.00000000000000E+00   1.63708429434414E-09  -8.49701171721029E-35
      1.63708429434414E-09   3.56450542378289E-18
      1.77746160279722E-02
      0.00000000000000E+00   4.75964036917858E-10   0.00000000000000E+00   0.00000000000000E+00  -1.77437673838691E-09
     -1.26185645866826E-34  -1.77437673838691E-09   4.19550099756276E-18   0.00000000000000E+00   0.00000000000000E+00
      0.00000000000000E+00   0.00000000000000E+00   0.00000000000000E+00   0.00000000000000E+00   0.00000000000000E+00
      3.08029137405094E-18   0.00000000000000E+00   0.00000000000000E+00   0.00000000000000E+00   0.00000000000000E+00
     -5.98971890683209E-20   2.09328996301348E-34  -5.98971890683207E-20  -1.08628706962394E-17   1.52861697840561E-02
      1.52861693063361E-02   0.00000000000000E+00   0.00000000000000E+00   1.77437673844681E-09  -8.31433504345218E-35
      1.77437673844681E-09   3.58707832462572E-18
      2.04269135239163E-02
      0.00000000000000E+00   5.09603750324000E-10   0.00000000000000E+00   0.00000000000000E+00  -1.89964664601239E-09
     -1.14745339072723E-34  -1.89964664601239E-09   4.19508992166091E-18   0.00000000000000E+00   0.00000000000000E+00
      0.00000000000000E+00   0.00000000000000E+00   0.00000000000000E+00   0.00000000000000E+00   0.00000000000000E+00
      3.05494735329960E-18   0.00000000000000E+00   0.00000000000000E+00   0.00000000000000E+00   0.00000000000000E+00
     -3.98412630588478E-19   1.94523666929224E-34  -3.98412630588478E-19  -1.08618169549364E-17   1.75671456305680E-02
      1.75671451190859E-02   0.00000000000000E+00   0.00000000000000E+00   1.89964664641080E-09  -7.97783278565013E-35
      1.89964664641080E-09   3.61177967997588E-18
      2.33267587861485E-02
      0.00000000000000E+00   5.39656224177292E-10   0.00000000000000E+00   0.00000000000000E+00  -2.01155912049944E-09
     -1.36063963933088E-34  -2.01155912049944E-09   4.19464074499273E-18   0.00000000000000E+00   0.00000000000000E+00
      0.00000000000000E+00   0.00000000000000E+00   0.00000000000000E+00   0.00000000000000E+00   0.00000000000000E+00
      3.02725622800562E-18   0.00000000000000E+00   0.00000000000000E+00   0.00000000000000E+00   0.00000000000000E+00
      5.05838360013637E-20   1.93978858128045E-34   5.05838360013639E-20  -1.08607087198494E-17   2.00610125560877E-02
      2.00610120144433E-02   0.00000000000000E+00   0.00000000000000E+00   2.01155912044886E-09  -5.79148941949572E-35
      2.01155912044886E-09   3.63881174685105E-18
      2.64972562728556E-02
      0.00000000000000E+00   5.65874809909388E-10   0.00000000000000E+00   0.00000000000000E+00  -2.10921638851764E-09
     -1.23916244479717E-34  -2.10921638851764E-09   4.19414994374317E-18   0.00000000000000E+00   0.00000000000000E+00
      0.00000000000000E+00   0.00000000000000E+00   0.00000000000000E+00   0.00000000000000E+00   0.00000000000000E+00
      2.99700155236964E-18   0.00000000000000E+00   0.00000000000000E+00   0.00000000000000E+00   0.00000000000000E+00
      1.81590114195412E-19   1.84617697323199E-34   1.81590114195412E-19  -1.08595476894000E-17   2.27876403946559E-02
      2.27876398266965E-02   0.00000000000000E+00   0.00000000000000E+00   2.10921638833605E-09  -6.07014528434822E-35
      2.10921638833605E-09   3.66839619328715E-18
      2.99636668583222E-02
      0.00000000000000E+00   5.88160753597026E-10   0.00000000000000E+00   0.00000000000000E+00  -2.19227535013425E-09
     -1.10619519742250E-34  -2.19227535013425E-09   4.19361366658010E-18   0.00000000000000E+00   0.00000000000000E+00
      0.00000000000000E+00   0.00000000000000E+00   0.00000000000000E+00   0.00000000000000E+00   0.00000000000000E+00
      2.96394694685983E-18   0.00000000000000E+00   0.00000000000000E+00   0.00000000000000E+00   0.00000000000000E+00
     -1.20448086675954E-19   1.64236231755638E-34  -1.20448086675954E-19  -1.08583365859079E-17   2.57687534981571E-02
      2.57687529078294E-02   0.00000000000000E+00   0.00000000000000E+00   2.19227535025470E-09  -5.36167120133879E-35
      2.19227535025470E-09   3.70077597246795E-18
      3.37536090984323E-02
      0.00000000000000E+00   6.06592500114310E-10   0.00000000000000E+00   0.00000000000000E+00  -2.26105615704238E-09
     -9.93449336924635E-35  -2.26105615704238E-09   4.19302770335868E-18   0.00000000000000E+00   0.00000000000000E+00
      0.00000000000000E+00   0.00000000000000E+00   0.00000000000000E+00   0.00000000000000E+00   0.00000000000000E+00
      2.92783422933903E-18   0.00000000000000E+00   0.00000000000000E+00   0.00000000000000E+00   0.00000000000000E+00
      4.23711293403770E-19   1.51234939248184E-34   4.23711293403770E-19  -1.08570793043318E-17   2.90281038246517E-02
      2.90281032158246E-02   0.00000000000000E+00   0.00000000000000E+00   2.26105615661866E-09  -5.18900055557208E-35
      2.26105615661866E-09   3.73621737163410E-18
      3.78972792809526E-02
      0.00000000000000E+00   6.21445248486915E-10   0.00000000000000E+00   0.00000000000000E+00  -2.31661283942481E-09
     -1.35944925725410E-34  -2.31661283942481E-09   4.19238745083308E-18   0.00000000000000E+00   0.00000000000000E+00
      0.00000000000000E+00   0.00000000000000E+00   0.00000000000000E+00   0.00000000000000E+00   0.00000000000000E+00
      2.88838136368518E-18   0.00000000000000E+00   0.00000000000000E+00   0.00000000000000E+00   0.00000000000000E+00
     -3.48700539327247E-20   1.80290517692011E-34  -3.48700539327245E-20  -1.08557810686876E-17   3.25916601816192E-02
      3.25916595578872E-02   0.00000000000000E+00   0.00000000000000E+00   2.31661283945968E-09  -4.43455919666010E-35
      2.31661283945968E-09   3.77501225416930E-18
      4.24276920138415E-02
      0.00000000000000E+00   6.33194334997714E-10   0.00000000000000E+00   0.00000000000000E+00  -2.36074335163773E-09
     -1.47726729593220E-34  -2.36074335163773E-09   4.19168787512840E-18   0.00000000000000E+00   0.00000000000000E+00
      0.00000000000000E+00   0.00000000000000E+00   0.00000000000000E+00   0.00000000000000E+00   0.00000000000000E+00
      2.84528020025254E-18   0.00000000000000E+00   0.00000000000000E+00   0.00000000000000E+00   0.00000000000000E+00
     -5.35553907495504E-20   1.84279141331910E-34  -5.35553907495502E-20  -1.08544485846480E-17   3.64878151319037E-02
      3.64878144963868E-02   0.00000000000000E+00   0.00000000000000E+00   2.36074335169128E-09  -3.65524117386899E-35
      2.36074335169128E-09   3.81748050926702E-18
      4.73809432684667E-02
      0.00000000000000E+00   6.42492818336636E-10   0.00000000000000E+00   0.00000000000000E+00  -2.39590208045152E-09
     -1.23504877230698E-34  -2.39590208045152E-09   4.19092347086594E-18   0.00000000000000E+00   0.00000000000000E+00
      0.00000000000000E+00   0.00000000000000E+00   0.00000000000000E+00   0.00000000000000E+00   0.00000000000000E+00
      2.79819399032509E-18   0.00000000000000E+00   0.00000000000000E+00   0.00000000000000E+00   0.00000000000000E+00
     -1.71075822463658E-19   1.65718448824132E-34  -1.71075822463658E-19  -1.08530901861378E-17   4.07476112108814E-02
      4.07476105660482E-02   0.00000000000000E+00   0.00000000000000E+00   2.39590208062259E-09  -4.22135715934338E-35
      2.39590208062259E-09   3.86397272494677E-18
      5.27964979735236E-02
      0.00000000000000E+00   6.50115352050849E-10   0.00000000000000E+00   0.00000000000000E+00  -2.42498804117176E-09
     -1.13076403640522E-34  -2.42498804117176E-09   4.19008821704262E-18   0.00000000000000E+00   0.00000000000000E+00
      0.00000000000000E+00   0.00000000000000E+00   0.00000000000000E+00   0.00000000000000E+00   0.00000000000000E+00
      2.74675466065234E-18   0.00000000000000E+00   0.00000000000000E+00   0.00000000000000E+00   0.00000000000000E+00
     -7.77267093734315E-19   1.42018681766962E-34  -7.77267093734315E-19  -1.08517159817697E-17   4.54049882572303E-02
      4.54049876047769E-02   0.00000000000000E+00   0.00000000000000E+00   2.42498804194903E-09  -2.89422781264396E-35
      2.42498804194903E-09   3.91487310407472E-18
      5.87175044510525E-02
      0.00000000000000E+00   6.56865171390998E-10   0.00000000000000E+00   0.00000000000000E+00  -2.45099612388646E-09
     -1.36560822450839E-34  -2.45099612388646E-09   4.18917552989305E-18   0.00000000000000E+00   0.00000000000000E+00
      0.00000000000000E+00   0.00000000000000E+00   0.00000000000000E+00   0.00000000000000E+00   0.00000000000000E+00
      2.69055983899493E-18   0.00000000000000E+00   0.00000000000000E+00   0.00000000000000E+00   0.00000000000000E+00
      5.51756518507226E-20   1.61693137921065E-34   5.51756518507228E-20  -1.08503380094640E-17   5.04970538279052E-02
      5.04970531687268E-02   0.00000000000000E+00   0.00000000000000E+00   2.45099612383128E-09  -2.51323154702259E-35
      2.45099612383128E-09   3.97060264057602E-18
      6.51516648233006E-02
      0.00000000000000E+00   6.63412082982184E-10   0.00000000000000E+00   0.00000000000000E+00  -2.47640508508914E-09
     -1.06522705353822E-34  -2.47640508508914E-09   4.18818429216692E-18   0.00000000000000E+00   0.00000000000000E+00
      0.00000000000000E+00   0.00000000000000E+00   0.00000000000000E+00   0.00000000000000E+00   0.00000000000000E+00
      2.62954380884686E-18   0.00000000000000E+00   0.00000000000000E+00   0.00000000000000E+00   0.00000000000000E+00
     -1.56394278324739E-19   1.25944417972959E-34  -1.56394278324739E-19  -1.08489783336523E-17   5.60304317480385E-02
      5.60304310823618E-02   0.00000000000000E+00   0.00000000000000E+00   2.47640508524553E-09  -1.94217126191372E-35
      2.47640508524553E-09   4.03125023263856E-18
      7.21434524278101E-02
      0.00000000000000E+00   6.70272011853157E-10   0.00000000000000E+00   0.00000000000000E+00  -2.50312082203217E-09
     -1.05873534323662E-34  -2.50312082203217E-09   4.18710772268105E-18   0.00000000000000E+00   0.00000000000000E+00
      0.00000000000000E+00   0.00000000000000E+00   0.00000000000000E+00   0.00000000000000E+00   0.00000000000000E+00
      2.56329204672997E-18   0.00000000000000E+00   0.00000000000000E+00   0.00000000000000E+00   0.00000000000000E+00
      1.22903113466154E-20   1.22288758350076E-34   1.22903113466155E-20  -1.08476520824648E-17   6.20433690879167E-02
      6.20433684154528E-02   0.00000000000000E+00   0.00000000000000E+00   2.50312082201988E-09  -1.64152240264141E-35
      2.50312082201988E-09   4.09725231305381E-18
      7.97411949580438E-02
      0.00000000000000E+00   6.77768303555798E-10   0.00000000000000E+00   0.00000000000000E+00  -2.53234403244798E-09
     -1.29943747120541E-34  -2.53234403244798E-09   4.18593845646949E-18   0.00000000000000E+00   0.00000000000000E+00
      0.00000000000000E+00   0.00000000000000E+00   0.00000000000000E+00   0.00000000000000E+00   0.00000000000000E+00
      2.49135411560002E-18   0.00000000000000E+00   0.00000000000000E+00   0.00000000000000E+00   0.00000000000000E+00
     -4.21362597682713E-19   1.45554373852539E-34  -4.21362597682713E-19  -1.08463764203616E-17   6.85774276639177E-02
      6.85774269840586E-02   0.00000000000000E+00   0.00000000000000E+00   2.53234403286934E-09  -1.56106267319979E-35
      2.53234403286934E-09   4.16908384829205E-18
      8.79974085075645E-02
      0.00000000000000E+00   6.86056464486142E-10   0.00000000000000E+00   0.00000000000000E+00  -2.56465518791818E-09
     -1.28214532184287E-34  -2.56465518791818E-09   4.18466849747438E-18   0.00000000000000E+00   0.00000000000000E+00
      0.00000000000000E+00   0.00000000000000E+00   0.00000000000000E+00   0.00000000000000E+00   0.00000000000000E+00
      2.41324060396355E-18   0.00000000000000E+00   0.00000000000000E+00   0.00000000000000E+00   0.00000000000000E+00
      1.91735245872769E-19   1.40280864705539E-34   1.91735245872769E-19  -1.08451707272138E-17   7.56777713165054E-02
      7.56777706284786E-02   0.00000000000000E+00   0.00000000000000E+00   2.56465518772645E-09  -1.20663325212525E-35
      2.56465518772645E-09   4.24726162577589E-18
      9.69691605647102E-02
      0.00000000000000E+00   6.95147662774864E-10   0.00000000000000E+00   0.00000000000000E+00  -2.60010409021294E-09
     -1.41306469108963E-34  -2.60010409021294E-09   4.18328916501645E-18   0.00000000000000E+00   0.00000000000000E+00
      0.00000000000000E+00   0.00000000000000E+00   0.00000000000000E+00   0.00000000000000E+00   0.00000000000000E+00
      2.32841985135725E-18   0.00000000000000E+00   0.00000000000000E+00   0.00000000000000E+00   0.00000000000000E+00
     -8.68995400815932E-19   1.49733473947986E-34  -8.68995400815932E-19  -1.08440568295262E-17   8.33934780856508E-02
      8.33934773886671E-02   0.00000000000000E+00   0.00000000000000E+00   2.60010409108194E-09  -8.42700483902326E-36
      2.60010409108194E-09   4.33234781315257E-18
      1.06718464466809E-01
      0.00000000000000E+00   7.05030353443809E-10   0.00000000000000E+00   0.00000000000000E+00  -2.63867365258030E-09
     -1.25880377109454E-34  -2.63867365258030E-09   4.18179102654912E-18   0.00000000000000E+00   0.00000000000000E+00
      0.00000000000000E+00   0.00000000000000E+00   0.00000000000000E+00   0.00000000000000E+00   0.00000000000000E+00
      2.23631406280712E-18   0.00000000000000E+00   0.00000000000000E+00   0.00000000000000E+00   0.00000000000000E+00
     -5.10206699517783E-19   1.31773997471402E-34  -5.10206699517783E-19  -1.08430588524170E-17   9.17778794414554E-02
      9.17778787347453E-02   0.00000000000000E+00   0.00000000000000E+00   2.63867365309051E-09  -5.89362036194832E-36
      2.63867365309051E-09   4.42495376306077E-18
      1.16718464466809E-01
      0.00000000000000E+00   7.15152743727219E-10   0.00000000000000E+00   0.00000000000000E+00  -2.67822743897462E-09
     -1.20827258386576E-34  -2.67822743897462E-09   4.18025508073778E-18   0.00000000000000E+00   0.00000000000000E+00
      0.00000000000000E+00   0.00000000000000E+00   0.00000000000000E+00   0.00000000000000E+00   0.00000000000000E+00
      2.14190361678072E-18   0.00000000000000E+00   0.00000000000000E+00   0.00000000000000E+00   0.00000000000000E+00
     -6.16655683700829E-19   1.24467623377000E-34  -6.16655683700829E-19  -1.08422452480449E-17   1.00377879441455E-01
      1.00377878724799E-01   0.00000000000000E+00   0.00000000000000E+00   2.67822743959128E-09  -3.64036499042423E-36
      2.67822743959128E-09   4.52008655052639E-18
      1.26718464466809E-01
      0.00000000000000E+00   7.25276922615872E-10   0.00000000000000E+00   0.00000000000000E+00  -2.71783579102519E-09
     -1.26587292012263E-34  -2.71783579102519E-09   4.17871979072416E-18   0.00000000000000E+00   0.00000000000000E+00
      0.00000000000000E+00   0.00000000000000E+00   0.00000000000000E+00   0.00000000000000E+00   0.00000000000000E+00
      2.04755089886945E-18   0.00000000000000E+00   0.00000000000000E+00   0.00000000000000E+00   0.00000000000000E+00
      5.18233075339507E-19   1.30520691167471E-34   5.18233075339507E-19  -1.08416259364651E-17   1.08977879441455E-01
      1.08977878714861E-01   0.00000000000000E+00   0.00000000000000E+00   2.71783579050696E-09  -3.93339915520806E-36
      2.71783579050696E-09   4.61535524687145E-18
      1.36718464466809E-01
      0.00000000000000E+00   7.35422171823465E-10   0.00000000000000E+00   0.00000000000000E+00  -2.75757125242973E-09
     -1.31509491079533E-34  -2.75757125242973E-09   4.17718509847568E-18   0.00000000000000E+00   0.00000000000000E+00
      0.00000000000000E+00   0.00000000000000E+00   0.00000000000000E+00   0.00000000000000E+00   0.00000000000000E+00
      1.95325004177447E-18   0.00000000000000E+00   0.00000000000000E+00   0.00000000000000E+00   0.00000000000000E+00
     -1.70016630279445E-19   1.34423520191800E-34  -1.70016630279445E-19  -1.08411844581296E-17   1.17577879441455E-01
      1.17577878704900E-01   0.00000000000000E+00   0.00000000000000E+00   2.75757125259975E-09  -2.91402911226671E-36
      2.75757125259975E-09   4.71074931787942E-18
      1.46718464466809E-01
      0.00000000000000E+00   7.45604581222360E-10   0.00000000000000E+00   0.00000000000000E+00  -2.79749407069772E-09
     -1.24075254882666E-34  -2.79749407069772E-09   4.17565095240788E-18   0.00000000000000E+00   0.00000000000000E+00
      0.00000000000000E+00   0.00000000000000E+00   0.00000000000000E+00   0.00000000000000E+00   0.00000000000000E+00
      1.85899596791183E-18   0.00000000000000E+00   0.00000000000000E+00   0.00000000000000E+00   0.00000000000000E+00
     -3.16039126866384E-19   1.25870900778058E-34  -3.16039126866384E-19  -1.08409060791096E-17   1.26177879441455E-01
      1.26177878694896E-01   0.00000000000000E+00   0.00000000000000E+00   2.79749407101376E-09  -1.79564589539206E-36
      2.79749407101376E-09   4.80625915878986E-18
      1.56718464466809E-01
      0.00000000000000E+00   7.55834879603460E-10   0.00000000000000E+00   0.00000000000000E+00  -2.83764310728465E-09
     -1.13433843389864E-34  -2.83764310728465E-09   4.17411730528269E-18   0.00000000000000E+00   0.00000000000000E+00
      0.00000000000000E+00   0.00000000000000E+00   0.00000000000000E+00   0.00000000000000E+00   0.00000000000000E+00
      1.76478421896378E-18   0.00000000000000E+00   0.00000000000000E+00   0.00000000000000E+00   0.00000000000000E+00
     -1.55111361541842E-19   1.14716564201098E-34  -1.55111361541842E-19  -1.08407775108294E-17   1.34777879441455E-01
      1.34777878684839E-01   0.00000000000000E+00   0.00000000000000E+00   2.83764310743976E-09  -1.28272081123357E-36
      2.83764310743976E-09   4.90187598658292E-18
      1.66718464466809E-01
      0.00000000000000E+00   7.66118086234308E-10   0.00000000000000E+00   0.00000000000000E+00  -2.87803574256084E-09
     -1.08355235150753E-34  -2.87803574256084E-09   4.17258411428608E-18   0.00000000000000E+00   0.00000000000000E+00
      0.00000000000000E+00   0.00000000000000E+00   0.00000000000000E+00   0.00000000000000E+00   0.00000000000000E+00
      1.67061087595907E-18   0.00000000000000E+00   0.00000000000000E+00   0.00000000000000E+00   0.00000000000000E+00
      2.19834891870162E-19   1.09350312091123E-34   2.19834891870162E-19  -1.08407867500855E-17   1.43377879441455E-01
      1.43377878674727E-01   0.00000000000000E+00   0.00000000000000E+00   2.87803574234101E-09  -9.95076940370351E-37
      2.87803574234101E-09   4.99759175984033E-18
      1.76718464466809E-01
      0.00000000000000E+00   7.76455075060189E-10   0.00000000000000E+00   0.00000000000000E+00  -2.91867414747947E-09
     -1.31539537477473E-34  -2.91867414747947E-09   4.17105134163821E-18   0.00000000000000E+00   0.00000000000000E+00
      0.00000000000000E+00   0.00000000000000E+00   0.00000000000000E+00   0.00000000000000E+00   0.00000000000000E+00
      1.57647251069535E-18   0.00000000000000E+00   0.00000000000000E+00   0.00000000000000E+00   0.00000000000000E+00
      1.91451111738969E-20   1.32413642409780E-34   1.91451111738971E-20  -1.08409229647437E-17   1.51977879441455E-01
      1.51977878664568E-01   0.00000000000000E+00   0.00000000000000E+00   2.91867414746032E-09  -8.74104932307027E-37
      2.91867414746032E-09   5.09339911241017E-18
      1.86718464466809E-01
      0.00000000000000E+00   7.86844474091161E-10   0.00000000000000E+00   0.00000000000000E+00  -2.95955274087315E-09