DF-ISE text

Info {
  version   = 1.0
  type      = xyplot
  datasets  = [
    "time"
    "source OuterVoltage" "source InnerVoltage" "source QuasiFermiPotential" "source DisplacementCurrent" "source eCurrent"
    "source hCurrent" "source TotalCurrent" "source Charge" "gate OuterVoltage" "gate InnerVoltage"
    "gate QuasiFermiPotential" "gate DisplacementCurrent" "gate eCurrent" "gate hCurrent" "gate TotalCurrent"
    "gate Charge" "substrate OuterVoltage" "substrate InnerVoltage" "substrate QuasiFermiPotential" "substrate DisplacementCurrent"
    "substrate eCurrent" "substrate hCurrent" "substrate TotalCurrent" "substrate Charge" "drain OuterVoltage"
    "drain InnerVoltage" "drain QuasiFermiPotential" "drain DisplacementCurrent" "drain eCurrent" "drain hCurrent"
    "drain TotalCurrent" "drain Charge" ]
  functions = [
    Time
    OuterVoltage InnerVoltage QuasiFermiPotential DisplacementCurrent eCurrent
    hCurrent TotalCurrent Charge OuterVoltage InnerVoltage
    QuasiFermiPotential DisplacementCurrent eCurrent hCurrent TotalCurrent
    Charge OuterVoltage InnerVoltage QuasiFermiPotential DisplacementCurrent
    eCurrent hCurrent TotalCurrent Charge OuterVoltage
    InnerVoltage QuasiFermiPotential DisplacementCurrent eCurrent hCurrent
    TotalCurrent Charge ]
}

Data {
      0.00000000000000E+00
      0.00000000000000E+00   0.00000000000000E+00   0.00000000000000E+00   0.00000000000000E+00   1.76761486711833E-21
      6.39460502260261E-34   1.76761486711897E-21   5.02338221630083E-18   0.00000000000000E+00   0.00000000000000E+00
      0.00000000000000E+00   0.00000000000000E+00   0.00000000000000E+00   0.00000000000000E+00   0.00000000000000E+00
      3.48083811025630E-18   0.00000000000000E+00   0.00000000000000E+00   0.00000000000000E+00   0.00000000000000E+00
     -2.44555585230618E-20  -1.25402226167789E-33  -2.44555585230631E-20  -1.27385345885970E-17   0.00000000000000E+00
      0.00000000000000E+00   0.00000000000000E+00   0.00000000000000E+00   2.26879436559435E-20   6.14561759417628E-34
      2.26879436559441E-20   4.23431426203990E-18
      0.00000000000000E+00
      0.00000000000000E+00   0.00000000000000E+00   0.00000000000000E+00   0.00000000000000E+00  -1.36985753470459E-20
      6.75805128460334E-34  -1.36985753470452E-20   5.02139182801282E-18   0.00000000000000E+00   0.00000000000000E+00
      0.00000000000000E+00   0.00000000000000E+00   0.00000000000000E+00   0.00000000000000E+00   0.00000000000000E+00
      3.47458556497007E-18   0.00000000000000E+00   0.00000000000000E+00   0.00000000000000E+00   0.00000000000000E+00
     -1.65441309890802E-21  -1.27675386536368E-33  -1.65441309890930E-21  -1.27288435680056E-17   0.00000000000000E+00
      0.00000000000000E+00   0.00000000000000E+00   0.00000000000000E+00   1.53529884459539E-20   6.00948736903350E-34
      1.53529884459545E-20   4.23286617502276E-18
      1.00000000000000E-03
      0.00000000000000E+00   2.70338786519169E-11   0.00000000000000E+00   0.00000000000000E+00  -1.28242017111681E-10
      6.64516217188612E-34  -1.28242017111681E-10   5.02104986426523E-18   0.00000000000000E+00   0.00000000000000E+00
      0.00000000000000E+00   0.00000000000000E+00   0.00000000000000E+00   0.00000000000000E+00   0.00000000000000E+00
      3.46435202326495E-18   0.00000000000000E+00   0.00000000000000E+00   0.00000000000000E+00   0.00000000000000E+00
      9.94874499340328E-20  -1.27131525080790E-33   9.94874499340315E-20  -1.27285089442289E-17   8.60000000000000E-04
      8.59999972619098E-04   0.00000000000000E+00   0.00000000000000E+00   1.28242017012194E-10   6.06799033619288E-34
      1.28242017012194E-10   4.24310705669876E-18
      2.08666666666667E-03
      0.00000000000000E+00   5.46763064662597E-11   0.00000000000000E+00   0.00000000000000E+00  -2.59355538406473E-10
      6.65988793408967E-34  -2.59355538406473E-10   5.02067833605212E-18   0.00000000000000E+00   0.00000000000000E+00
      0.00000000000000E+00   0.00000000000000E+00   0.00000000000000E+00   0.00000000000000E+00   0.00000000000000E+00
      3.45323416373138E-18   0.00000000000000E+00   0.00000000000000E+00   0.00000000000000E+00   0.00000000000000E+00
     -6.57618765882575E-20  -1.23888114802611E-33  -6.57618765882587E-20  -1.27281515550081E-17   1.79453333333333E-03
      1.79453327795551E-03   0.00000000000000E+00   0.00000000000000E+00   2.59355538472235E-10   5.72892354617138E-34
      2.59355538472235E-10   4.25423905522462E-18
      3.27475555555556E-03
      0.00000000000000E+00   8.28646180270608E-11   0.00000000000000E+00   0.00000000000000E+00  -3.93038145964967E-10
      6.27628001031437E-34  -3.93038145964967E-10   5.02027221721371E-18   0.00000000000000E+00   0.00000000000000E+00
      0.00000000000000E+00   0.00000000000000E+00   0.00000000000000E+00   0.00000000000000E+00   0.00000000000000E+00
      3.44108167638350E-18   0.00000000000000E+00   0.00000000000000E+00   0.00000000000000E+00   0.00000000000000E+00
      1.21066804494185E-19  -1.20303618206116E-33   1.21066804494184E-19  -1.27277681473477E-17   2.81628977777778E-03
      2.81628969385039E-03   0.00000000000000E+00   0.00000000000000E+00   3.93038145843900E-10   5.75408181029722E-34
      3.93038145843900E-10   4.26641425375051E-18
      4.57373274074074E-03
      0.00000000000000E+00   1.11356630346325E-10   0.00000000000000E+00   0.00000000000000E+00  -5.28137546178490E-10
      6.70956264149698E-34  -5.28137546178490E-10   5.01982829437635E-18   0.00000000000000E+00   0.00000000000000E+00
      0.00000000000000E+00   0.00000000000000E+00   0.00000000000000E+00   0.00000000000000E+00   0.00000000000000E+00
      3.42779852979239E-18   0.00000000000000E+00   0.00000000000000E+00   0.00000000000000E+00   0.00000000000000E+00
      5.40413485502748E-20  -1.21574807163076E-33   5.40413485502736E-20  -1.27273576062325E-17   3.93341015703704E-03
      3.93341004425274E-03   0.00000000000000E+00   0.00000000000000E+00   5.28137546124449E-10   5.44791807481060E-34
      5.28137546124449E-10   4.27973078206373E-18
      5.99394779654321E-03
      0.00000000000000E+00   1.39886654802772E-10   0.00000000000000E+00   0.00000000000000E+00  -6.63391176848223E-10
      6.88655528384464E-34  -6.63391176848223E-10   5.01934305654338E-18   0.00000000000000E+00   0.00000000000000E+00
      0.00000000000000E+00   0.00000000000000E+00   0.00000000000000E+00   0.00000000000000E+00   0.00000000000000E+00
      3.41327981691706E-18   0.00000000000000E+00   0.00000000000000E+00   0.00000000000000E+00   0.00000000000000E+00
     -4.46313436484307E-20  -1.19882955517912E-33  -4.46313436484319E-20  -1.27269189347588E-17   5.15479510502716E-03
      5.15479496334763E-03   0.00000000000000E+00   0.00000000000000E+00   6.63391176892855E-10   5.10174026794652E-34
      6.63391176892855E-10   4.29429606129843E-18
      7.54671625755391E-03
      0.00000000000000E+00   1.68165158722941E-10   0.00000000000000E+00   0.00000000000000E+00  -7.97424840511987E-10
      6.84021255345263E-34  -7.97424840511987E-10   5.01881266763280E-18   0.00000000000000E+00   0.00000000000000E+00
      0.00000000000000E+00   0.00000000000000E+00   0.00000000000000E+00   0.00000000000000E+00   0.00000000000000E+00
      3.39741093909227E-18   0.00000000000000E+00   0.00000000000000E+00   0.00000000000000E+00   0.00000000000000E+00
      6.51554598745947E-20  -1.20500804948622E-33   6.51554598745935E-20  -1.27264512989278E-17   6.49017598149636E-03
      6.49017581117651E-03   0.00000000000000E+00   0.00000000000000E+00   7.97424840446832E-10   5.20986794140957E-34
      7.97424840446832E-10   4.31022769220268E-18
      9.24440977492561E-03
      0.00000000000000E+00   1.95882469785590E-10   0.00000000000000E+00   0.00000000000000E+00  -9.28770752443019E-10
      6.42303597300300E-34  -9.28770752443019E-10   5.01823293645405E-18   0.00000000000000E+00   0.00000000000000E+00
      0.00000000000000E+00   0.00000000000000E+00   0.00000000000000E+00   0.00000000000000E+00   0.00000000000000E+00
      3.38006671525065E-18   0.00000000000000E+00   0.00000000000000E+00   0.00000000000000E+00   0.00000000000000E+00
     -1.36005331480753E-19  -1.11211873440579E-33  -1.36005331480754E-19  -1.27259540808626E-17   7.95019240643603E-03
      7.95019220804443E-03   0.00000000000000E+00   0.00000000000000E+00   9.28770752579025E-10   4.69815137105485E-34
      9.28770752579025E-10   4.32765442915789E-18
      1.11005546872520E-02
      0.00000000000000E+00   2.22716049959399E-10   0.00000000000000E+00   0.00000000000000E+00  -1.05590241957353E-09
      6.31830910412432E-34  -1.05590241957353E-09   5.01759928387109E-18   0.00000000000000E+00   0.00000000000000E+00
      0.00000000000000E+00   0.00000000000000E+00   0.00000000000000E+00   0.00000000000000E+00   0.00000000000000E+00
      3.36111040836283E-18   0.00000000000000E+00   0.00000000000000E+00   0.00000000000000E+00   0.00000000000000E+00
     -1.13798323146009E-19  -1.09015998273963E-33  -1.13798323146010E-19  -1.27254269402238E-17   9.54647703103672E-03
      9.54647680546862E-03   0.00000000000000E+00   0.00000000000000E+00   1.05590241968733E-09   4.58329072327202E-34
      1.05590241968733E-09   4.34671724798987E-18
      1.31299397913955E-02
      0.00000000000000E+00   2.48340161540984E-10   0.00000000000000E+00   0.00000000000000E+00  -1.17728070641622E-09
      6.71153335668111E-34  -1.17728070641622E-09   5.01690670691453E-18   0.00000000000000E+00   0.00000000000000E+00
      0.00000000000000E+00   0.00000000000000E+00   0.00000000000000E+00   0.00000000000000E+00   0.00000000000000E+00
      3.34039266274945E-18   0.00000000000000E+00   0.00000000000000E+00   0.00000000000000E+00   0.00000000000000E+00
      2.61431767505835E-20  -1.11157892517782E-33   2.61431767505823E-20  -1.27248698865022E-17   1.12917482206002E-02
      1.12917479690805E-02   0.00000000000000E+00   0.00000000000000E+00   1.17728070639007E-09   4.40425589509711E-34
      1.17728070639007E-09   4.36757051683824E-18
      1.53487341719258E-02
      0.00000000000000E+00   2.72438808988548E-10   0.00000000000000E+00   0.00000000000000E+00  -1.29141577338225E-09
      6.41537392268741E-34  -1.29141577338225E-09   5.01614973949569E-18   0.00000000000000E+00   0.00000000000000E+00
      0.00000000000000E+00   0.00000000000000E+00   0.00000000000000E+00   0.00000000000000E+00   0.00000000000000E+00
      3.31775034200537E-18   0.00000000000000E+00   0.00000000000000E+00   0.00000000000000E+00   0.00000000000000E+00
      5.11945446731665E-20  -1.03578205725538E-33   5.11945446731655E-20  -1.27242833606473E-17   1.31999113878562E-02
      1.31999111119299E-02   0.00000000000000E+00   0.00000000000000E+00   1.29141577333105E-09   3.94244664986644E-34
      1.29141577333105E-09   4.39038327914623E-18
      1.77746160279722E-02
      0.00000000000000E+00   2.94720701339742E-10   0.00000000000000E+00   0.00000000000000E+00  -1.39693842851676E-09
      6.42656847597523E-34  -1.39693842851676E-09   5.01532240945352E-18   0.00000000000000E+00   0.00000000000000E+00
      0.00000000000000E+00   0.00000000000000E+00   0.00000000000000E+00   0.00000000000000E+00   0.00000000000000E+00
      3.29300525989804E-18   0.00000000000000E+00   0.00000000000000E+00   0.00000000000000E+00   0.00000000000000E+00
      2.35897368346580E-19  -1.01350880164684E-33   2.35897368346579E-19  -1.27236683297181E-17   1.52861697840561E-02
      1.52861694855635E-02   0.00000000000000E+00   0.00000000000000E+00   1.39693842828086E-09   3.70851954049315E-34
      1.39693842828086E-09   4.41534066036658E-18
      2.04269135239163E-02
      0.00000000000000E+00   3.14937185103463E-10   0.00000000000000E+00   0.00000000000000E+00  -1.49268524373394E-09
      6.88209908499917E-34  -1.49268524373394E-09   5.01441819150191E-18   0.00000000000000E+00   0.00000000000000E+00
      0.00000000000000E+00   0.00000000000000E+00   0.00000000000000E+00   0.00000000000000E+00   0.00000000000000E+00
      3.26596279124390E-18   0.00000000000000E+00   0.00000000000000E+00   0.00000000000000E+00   0.00000000000000E+00
      2.09979563915696E-20  -1.01576214551665E-33   2.09979563915686E-20  -1.27230263912576E-17   1.75671456305680E-02
      1.75671453116013E-02   0.00000000000000E+00   0.00000000000000E+00   1.49268524371294E-09   3.27552237016729E-34
      1.49268524371294E-09   4.44264540851181E-18
      2.33267587861485E-02
      0.00000000000000E+00   3.32901655769177E-10   0.00000000000000E+00   0.00000000000000E+00  -1.57779082943161E-09
      6.68075367583048E-34  -1.57779082943161E-09   5.01342995570595E-18   0.00000000000000E+00   0.00000000000000E+00
      0.00000000000000E+00   0.00000000000000E+00   0.00000000000000E+00   0.00000000000000E+00   0.00000000000000E+00
      3.23641035230505E-18   0.00000000000000E+00   0.00000000000000E+00   0.00000000000000E+00   0.00000000000000E+00
      3.05724740348633E-20  -9.97156041779944E-34   3.05724740348623E-20  -1.27223598895702E-17   2.00610125560877E-02
      2.00610122189282E-02   0.00000000000000E+00   0.00000000000000E+00   1.57779082940104E-09   3.29080674196895E-34
      1.57779082940104E-09   4.47251958155919E-18
      2.64972562728556E-02
      0.00000000000000E+00   3.48509393787866E-10   0.00000000000000E+00   0.00000000000000E+00  -1.65178167144833E-09
      6.54683717678684E-34  -1.65178167144833E-09   5.01234991104762E-18   0.00000000000000E+00   0.00000000000000E+00
      0.00000000000000E+00   0.00000000000000E+00   0.00000000000000E+00   0.00000000000000E+00   0.00000000000000E+00
      3.20411573809981E-18   0.00000000000000E+00   0.00000000000000E+00   0.00000000000000E+00   0.00000000000000E+00
      6.75530205211636E-20  -9.41788553639069E-34   6.75530205211627E-20  -1.27216720443432E-17   2.27876403946559E-02
      2.27876400416915E-02   0.00000000000000E+00   0.00000000000000E+00   1.65178167138077E-09   2.87104835960386E-34
      1.65178167138077E-09   4.50520639519578E-18
      2.99636668583222E-02
      0.00000000000000E+00   3.61757369110633E-10   0.00000000000000E+00   0.00000000000000E+00  -1.71466924317916E-09
      6.84723972466771E-34  -1.71466924317916E-09   5.01116954353669E-18   0.00000000000000E+00   0.00000000000000E+00
      0.00000000000000E+00   0.00000000000000E+00   0.00000000000000E+00   0.00000000000000E+00   0.00000000000000E+00
      3.16882529797128E-18   0.00000000000000E+00   0.00000000000000E+00   0.00000000000000E+00   0.00000000000000E+00
      1.78600336258354E-19  -9.46114137501738E-34   1.78600336258353E-19  -1.27209670848371E-17   2.57687534981571E-02
      2.57687531317795E-02   0.00000000000000E+00   0.00000000000000E+00   1.71466924300056E-09   2.61390165034967E-34
      1.71466924300056E-09   4.54097224332914E-18
      3.37536090984323E-02
      0.00000000000000E+00   3.72760072408131E-10   0.00000000000000E+00   0.00000000000000E+00  -1.76702398408011E-09
      6.29946739211492E-34  -1.76702398408011E-09   5.00987954839805E-18   0.00000000000000E+00   0.00000000000000E+00
      0.00000000000000E+00   0.00000000000000E+00   0.00000000000000E+00   0.00000000000000E+00   0.00000000000000E+00
      3.13026193559258E-18   0.00000000000000E+00   0.00000000000000E+00   0.00000000000000E+00   0.00000000000000E+00
     -1.90702603359100E-19  -8.74647635505804E-34  -1.90702603359101E-19  -1.27202503921253E-17   2.90281038246517E-02
      2.90281034471379E-02   0.00000000000000E+00   0.00000000000000E+00   1.76702398427081E-09   2.44700896294311E-34
      1.76702398427081E-09   4.58010890813465E-18
      3.78972792809526E-02
      0.00000000000000E+00   3.81756701300683E-10   0.00000000000000E+00   0.00000000000000E+00  -1.81000793814997E-09
      6.46759323377884E-34  -1.81000793814997E-09   5.00846975587944E-18   0.00000000000000E+00   0.00000000000000E+00
      0.00000000000000E+00   0.00000000000000E+00   0.00000000000000E+00   0.00000000000000E+00   0.00000000000000E+00
      3.08812291867465E-18   0.00000000000000E+00   0.00000000000000E+00   0.00000000000000E+00   0.00000000000000E+00
     -3.85521850411776E-19  -8.61192335003221E-34  -3.85521850411777E-19  -1.27195286506390E-17   3.25916601816192E-02
      3.25916597950054E-02   0.00000000000000E+00   0.00000000000000E+00   1.81000793853549E-09   2.14433011625337E-34
      1.81000793853549E-09   4.62293597608498E-18
      4.24276920138415E-02
      0.00000000000000E+00   3.89106233839668E-10   0.00000000000000E+00   0.00000000000000E+00  -1.84534830313053E-09
      6.83568705667303E-34  -1.84534830313053E-09   5.00692905003918E-18   0.00000000000000E+00   0.00000000000000E+00
      0.00000000000000E+00   0.00000000000000E+00   0.00000000000000E+00   0.00000000000000E+00   0.00000000000000E+00
      3.04207746962070E-18   0.00000000000000E+00   0.00000000000000E+00   0.00000000000000E+00   0.00000000000000E+00
     -6.52733333766584E-20  -8.61183908155227E-34  -6.52733333766593E-20  -1.27188099934798E-17   3.64878151319037E-02
      3.64878147378644E-02   0.00000000000000E+00   0.00000000000000E+00   1.84534830319580E-09   1.77615202487923E-34
      1.84534830319580E-09   4.66980347381997E-18
      4.73809432684667E-02
      0.00000000000000E+00   3.95262872865491E-10   0.00000000000000E+00   0.00000000000000E+00  -1.87521723832906E-09
      6.24713183241789E-34  -1.87521723832906E-09   5.00524528015783E-18   0.00000000000000E+00   0.00000000000000E+00
      0.00000000000000E+00   0.00000000000000E+00   0.00000000000000E+00   0.00000000000000E+00   0.00000000000000E+00
      2.99176412332956E-18   0.00000000000000E+00   0.00000000000000E+00   0.00000000000000E+00   0.00000000000000E+00
     -4.39697630658037E-19  -7.83790538591183E-34  -4.39697630658038E-19  -1.27181041480866E-17   4.07476112108814E-02
      4.07476108106338E-02   0.00000000000000E+00   0.00000000000000E+00   1.87521723876876E-09   1.59077355349394E-34
      1.87521723876876E-09   4.72109474459917E-18
      5.27964979735236E-02
      0.00000000000000E+00   4.00732660539554E-10   0.00000000000000E+00   0.00000000000000E+00  -1.90202538831496E-09
      6.67140943320255E-34  -1.90202538831496E-09   5.00340516429557E-18   0.00000000000000E+00   0.00000000000000E+00
      0.00000000000000E+00   0.00000000000000E+00   0.00000000000000E+00   0.00000000000000E+00   0.00000000000000E+00
      2.93678783406034E-18   0.00000000000000E+00   0.00000000000000E+00   0.00000000000000E+00   0.00000000000000E+00
     -9.21394473978330E-19  -8.06379795961028E-34  -9.21394473978331E-19  -1.27174225825614E-17   4.54049882572303E-02
      4.54049878514824E-02   0.00000000000000E+00   0.00000000000000E+00   1.90202538923635E-09   1.39238852640773E-34
      1.90202538923635E-09   4.77722958420551E-18
      5.87175044510525E-02
      0.00000000000000E+00   4.06016336851401E-10   0.00000000000000E+00   0.00000000000000E+00  -1.92815413317416E-09
      6.49403649621421E-34  -1.92815413317416E-09   5.00139418501538E-18   0.00000000000000E+00   0.00000000000000E+00
      0.00000000000000E+00   0.00000000000000E+00   0.00000000000000E+00   0.00000000000000E+00   0.00000000000000E+00
      2.87671681876411E-18   0.00000000000000E+00   0.00000000000000E+00   0.00000000000000E+00   0.00000000000000E+00
     -6.35478352127282E-20  -7.66015251728162E-34  -6.35478352127290E-20  -1.27167786606821E-17   5.04970538279052E-02
      5.04970534168615E-02   0.00000000000000E+00   0.00000000000000E+00   1.92815413323771E-09   1.16611602106741E-34
      1.92815413323771E-09   4.83866765690255E-18
      6.51516648233006E-02
      0.00000000000000E+00   4.11501151482872E-10   0.00000000000000E+00   0.00000000000000E+00  -1.95543147035104E-09
      6.41223902230396E-34  -1.95543147035104E-09   4.99920987503292E-18   0.00000000000000E+00   0.00000000000000E+00
      0.00000000000000E+00   0.00000000000000E+00   0.00000000000000E+00   0.00000000000000E+00   0.00000000000000E+00
      2.81147922988594E-18   0.00000000000000E+00   0.00000000000000E+00   0.00000000000000E+00   0.00000000000000E+00
      2.94108128866428E-20  -7.38866871600782E-34   2.94108128866421E-20  -1.27161910688945E-17   5.60304317480385E-02
      5.60304313315133E-02   0.00000000000000E+00   0.00000000000000E+00   1.95543147032162E-09   9.76429693703857E-35
      1.95543147032162E-09   4.90550196397565E-18
      7.21434524278101E-02
      0.00000000000000E+00   4.17454537277825E-10   0.00000000000000E+00   0.00000000000000E+00  -1.98510679101740E-09
      6.76528170359257E-34  -1.98510679101740E-09   4.99683729194123E-18   0.00000000000000E+00   0.00000000000000E+00
      0.00000000000000E+00   0.00000000000000E+00   0.00000000000000E+00   0.00000000000000E+00   0.00000000000000E+00
      2.74063044525428E-18   0.00000000000000E+00   0.00000000000000E+00   0.00000000000000E+00   0.00000000000000E+00
      3.56566854058836E-20  -7.56519944576740E-34   3.56566854058828E-20  -1.27156758275658E-17   6.20433690879167E-02
      6.20433686654536E-02   0.00000000000000E+00   0.00000000000000E+00   1.98510679098175E-09   7.99917742174829E-35
      1.98510679098175E-09   4.97820809037028E-18
      7.97411949580438E-02
      0.00000000000000E+00   4.24013857556198E-10   0.00000000000000E+00   0.00000000000000E+00  -2.01782412488650E-09
      6.35423648698782E-34  -2.01782412488650E-09   4.99426020589619E-18   0.00000000000000E+00   0.00000000000000E+00
      0.00000000000000E+00   0.00000000000000E+00   0.00000000000000E+00   0.00000000000000E+00   0.00000000000000E+00
      2.66368736622325E-18   0.00000000000000E+00   0.00000000000000E+00   0.00000000000000E+00   0.00000000000000E+00
     -2.10890290087724E-19  -6.96546308125382E-34  -2.10890290087724E-19  -1.27152508406171E-17   6.85774276639177E-02
      6.85774272349225E-02   0.00000000000000E+00   0.00000000000000E+00   2.01782412509739E-09   6.11226594266003E-35
      2.01782412509739E-09   5.05730326849762E-18
      8.79974085075645E-02
      0.00000000000000E+00   4.31263501082885E-10   0.00000000000000E+00   0.00000000000000E+00  -2.05400388273535E-09
      6.06158160530227E-34  -2.05400388273535E-09   4.99146098793591E-18   0.00000000000000E+00   0.00000000000000E+00
      0.00000000000000E+00   0.00000000000000E+00   0.00000000000000E+00   0.00000000000000E+00   0.00000000000000E+00
      2.58012509388852E-18   0.00000000000000E+00   0.00000000000000E+00   0.00000000000000E+00   0.00000000000000E+00
      3.62094350409670E-20  -6.53208689485671E-34   3.62094350409663E-20  -1.27149359996223E-17   7.56777713165054E-02
      7.56777708803011E-02   0.00000000000000E+00   0.00000000000000E+00   2.05400388269914E-09   4.70505289554441E-35
      2.05400388269914E-09   5.14334991779785E-18
      9.69691605647102E-02
      0.00000000000000E+00   4.39249631836067E-10   0.00000000000000E+00   0.00000000000000E+00  -2.09388779318006E-09
      6.61248371518667E-34  -2.09388779318006E-09   4.98842049601323E-18   0.00000000000000E+00   0.00000000000000E+00
      0.00000000000000E+00   0.00000000000000E+00   0.00000000000000E+00   0.00000000000000E+00   0.00000000000000E+00
      2.48937337348273E-18   0.00000000000000E+00   0.00000000000000E+00   0.00000000000000E+00   0.00000000000000E+00
     -6.07504003864629E-20  -6.98095385078115E-34  -6.07504003864636E-20  -1.27147533350791E-17   8.33934780856508E-02
      8.33934776415125E-02   0.00000000000000E+00   0.00000000000000E+00   2.09388779324081E-09   3.68470135594478E-35
      2.09388779324081E-09   5.23695946558318E-18
      1.06718464466809E-01
      0.00000000000000E+00   4.47999454061421E-10   0.00000000000000E+00   0.00000000000000E+00  -2.13763217799809E-09
      6.12298939003100E-34  -2.13763217799809E-09   4.98511794353766E-18   0.00000000000000E+00   0.00000000000000E+00
      0.00000000000000E+00   0.00000000000000E+00   0.00000000000000E+00   0.00000000000000E+00   0.00000000000000E+00
      2.39081266030146E-18   0.00000000000000E+00   0.00000000000000E+00   0.00000000000000E+00   0.00000000000000E+00
      2.92470354733120E-20  -6.41163003476460E-34   2.92470354733114E-20  -1.27147270628388E-17   9.17778794414554E-02
      9.17778789886292E-02   0.00000000000000E+00   0.00000000000000E+00   2.13763217796885E-09   2.88640644733591E-35
      2.13763217796885E-09   5.33879645899966E-18
      1.16718464466809E-01
      0.00000000000000E+00   4.57039377404690E-10   0.00000000000000E+00   0.00000000000000E+00  -2.18289252987119E-09
      6.80752884106335E-34  -2.18289252987119E-09   4.98173191411368E-18   0.00000000000000E+00   0.00000000000000E+00
      0.00000000000000E+00   0.00000000000000E+00   0.00000000000000E+00   0.00000000000000E+00   0.00000000000000E+00
      2.28977230147831E-18   0.00000000000000E+00   0.00000000000000E+00   0.00000000000000E+00   0.00000000000000E+00
      6.13084538441994E-20  -7.00968737956563E-34   6.13084538441987E-20  -1.27148698401855E-17   1.00377879441455E-01
      1.00377878979662E-01   0.00000000000000E+00   0.00000000000000E+00   2.18289252980988E-09   2.02158538502280E-35
      2.18289252980988E-09   5.44336562459346E-18
      1.26718464466809E-01
      0.00000000000000E+00   4.66166281023815E-10   0.00000000000000E+00   0.00000000000000E+00  -2.22865834505045E-09
      6.65638477888322E-34  -2.22865834505045E-09   4.97834723075850E-18   0.00000000000000E+00   0.00000000000000E+00
      0.00000000000000E+00   0.00000000000000E+00   0.00000000000000E+00   0.00000000000000E+00   0.00000000000000E+00
      2.18878188025603E-18   0.00000000000000E+00   0.00000000000000E+00   0.00000000000000E+00   0.00000000000000E+00
     -2.04538142534971E-20  -6.82241652773403E-34  -2.04538142534978E-20  -1.27151688005944E-17   1.08977879441455E-01
      1.08977878970622E-01   0.00000000000000E+00   0.00000000000000E+00   2.22865834507090E-09   1.66031748850816E-35
      2.22865834507090E-09   5.54803968957987E-18
      1.36718464466809E-01
      0.00000000000000E+00   4.75402359902857E-10   0.00000000000000E+00   0.00000000000000E+00  -2.27503631558456E-09
      6.75679090691784E-34  -2.27503631558456E-09   4.97496379206122E-18   0.00000000000000E+00   0.00000000000000E+00
      0.00000000000000E+00   0.00000000000000E+00   0.00000000000000E+00   0.00000000000000E+00   0.00000000000000E+00
      2.08783659692392E-18   0.00000000000000E+00   0.00000000000000E+00   0.00000000000000E+00   0.00000000000000E+00
      1.70079579947642E-23  -6.87508682587016E-34   1.70079579940767E-23  -1.27156098338810E-17   1.17577879441455E-01
      1.17577878961482E-01   0.00000000000000E+00   0.00000000000000E+00   2.27503631558454E-09   1.18295918952318E-35
      2.27503631558454E-09   5.65280944489579E-18
      1.46718464466809E-01
      0.00000000000000E+00   4.84760484716477E-10   0.00000000000000E+00   0.00000000000000E+00  -2.32208704772685E-09
      6.44195195533848E-34  -2.32208704772685E-09   4.97158151440452E-18   0.00000000000000E+00   0.00000000000000E+00
      0.00000000000000E+00   0.00000000000000E+00   0.00000000000000E+00   0.00000000000000E+00   0.00000000000000E+00
      1.98693235039610E-18   0.00000000000000E+00   0.00000000000000E+00   0.00000000000000E+00   0.00000000000000E+00
      1.84292702270814E-20  -6.53198570158117E-34   1.84292702270807E-20  -1.27161803907896E-17   1.26177879441455E-01
      1.26177878952217E-01   0.00000000000000E+00   0.00000000000000E+00   2.32208704770842E-09   9.00337462426933E-36
      2.32208704770842E-09   5.75766652598897E-18
      1.56718464466809E-01
      0.00000000000000E+00   4.94245020985697E-10   0.00000000000000E+00   0.00000000000000E+00  -2.36983060651332E-09
      6.34235468372736E-34  -2.36983060651332E-09   4.96820032520995E-18   0.00000000000000E+00   0.00000000000000E+00
      0.00000000000000E+00   0.00000000000000E+00   0.00000000000000E+00   0.00000000000000E+00   0.00000000000000E+00
      1.88606559852696E-18   0.00000000000000E+00   0.00000000000000E+00   0.00000000000000E+00   0.00000000000000E+00
     -9.05498564529666E-20  -6.41198226865835E-34  -9.05498564529672E-20  -1.27168692400624E-17   1.34777879441455E-01
      1.34777878942814E-01   0.00000000000000E+00   0.00000000000000E+00   2.36983060660387E-09   6.96275849309913E-36
      2.36983060660387E-09   5.86260331632548E-18
      1.66718464466809E-01
      0.00000000000000E+00   5.03856098617038E-10   0.00000000000000E+00   0.00000000000000E+00  -2.41826665730725E-09
      6.58166913679571E-34  -2.41826665730725E-09   4.96482015911135E-18   0.00000000000000E+00   0.00000000000000E+00
      0.00000000000000E+00   0.00000000000000E+00   0.00000000000000E+00   0.00000000000000E+00   0.00000000000000E+00
      1.78523323350441E-18   0.00000000000000E+00   0.00000000000000E+00   0.00000000000000E+00   0.00000000000000E+00
      1.05140520566466E-19  -6.63041512718900E-34   1.05140520566465E-19  -1.27176662559168E-17   1.43377879441455E-01
      1.43377878933275E-01   0.00000000000000E+00   0.00000000000000E+00   2.41826665720211E-09   4.87459903932846E-36
      2.41826665720211E-09   5.96761286330109E-18
      1.76718464466809E-01
      0.00000000000000E+00   5.13592224099231E-10   0.00000000000000E+00   0.00000000000000E+00  -2.46738764798732E-09
      6.40285930448945E-34  -2.46738764798732E-09   4.96144095675408E-18   0.00000000000000E+00   0.00000000000000E+00
      0.00000000000000E+00   0.00000000000000E+00   0.00000000000000E+00   0.00000000000000E+00   0.00000000000000E+00
      1.68443250010545E-18   0.00000000000000E+00   0.00000000000000E+00   0.00000000000000E+00   0.00000000000000E+00
     -3.38611546198368E-20  -6.43835244855438E-34  -3.38611546198374E-20  -1.27185622650799E-17   1.51977879441455E-01
      1.51977878923608E-01   0.00000000000000E+00   0.00000000000000E+00   2.46738764802118E-09   3.54931440649278E-36
      2.46738764802118E-09   6.07268880822044E-18
      1.86718464466809E-01
      0.00000000000000E+00   5.23451774841921E-10   0.00000000000000E+00   0.00000000000000E+00  -2.51718640987622E-09