DF-ISE text

Info {
  version   = 1.0
  type      = xyplot
  datasets  = [
    "time"
    "source OuterVoltage" "source InnerVoltage" "source QuasiFermiPotential" "source DisplacementCurrent" "source eCurrent"
    "source hCurrent" "source TotalCurrent" "source Charge" "gate OuterVoltage" "gate InnerVoltage"
    "gate QuasiFermiPotential" "gate DisplacementCurrent" "gate eCurrent" "gate hCurrent" "gate TotalCurrent"
    "gate Charge" "substrate OuterVoltage" "substrate InnerVoltage" "substrate QuasiFermiPotential" "substrate DisplacementCurrent"
    "substrate eCurrent" "substrate hCurrent" "substrate TotalCurrent" "substrate Charge" "drain OuterVoltage"
    "drain InnerVoltage" "drain QuasiFermiPotential" "drain DisplacementCurrent" "drain eCurrent" "drain hCurrent"
    "drain TotalCurrent" "drain Charge" ]
  functions = [
    Time
    OuterVoltage InnerVoltage QuasiFermiPotential DisplacementCurrent eCurrent
    hCurrent TotalCurrent Charge OuterVoltage InnerVoltage
    QuasiFermiPotential DisplacementCurrent eCurrent hCurrent TotalCurrent
    Charge OuterVoltage InnerVoltage QuasiFermiPotential DisplacementCurrent
    eCurrent hCurrent TotalCurrent Charge OuterVoltage
    InnerVoltage QuasiFermiPotential DisplacementCurrent eCurrent hCurrent
    TotalCurrent Charge ]
}

Data {
      0.00000000000000E+00
      0.00000000000000E+00   0.00000000000000E+00   0.00000000000000E+00   0.00000000000000E+00   1.02154864197782E-21
     -1.20293390491817E-34   1.02154864197770E-21   4.53297416692735E-18   0.00000000000000E+00   0.00000000000000E+00
      0.00000000000000E+00   0.00000000000000E+00   0.00000000000000E+00   0.00000000000000E+00   0.00000000000000E+00
      2.18069215549848E-18   0.00000000000000E+00   0.00000000000000E+00   0.00000000000000E+00   0.00000000000000E+00
     -2.83995745386660E-21   2.38007174727363E-34  -2.83995745386637E-21  -1.08967648307904E-17   0.00000000000000E+00
      0.00000000000000E+00   0.00000000000000E+00   0.00000000000000E+00   1.81840881188878E-21  -1.17713784235547E-34
      1.81840881188867E-21   4.18309850836462E-18
      0.00000000000000E+00
      0.00000000000000E+00   0.00000000000000E+00   0.00000000000000E+00   0.00000000000000E+00  -5.08882882541808E-20
     -8.45493870235440E-35  -5.08882882541809E-20   4.53146472951929E-18   0.00000000000000E+00   0.00000000000000E+00
      0.00000000000000E+00   0.00000000000000E+00   0.00000000000000E+00   0.00000000000000E+00   0.00000000000000E+00
      2.17587272641628E-18   0.00000000000000E+00   0.00000000000000E+00   0.00000000000000E+00   0.00000000000000E+00
      2.35991267214097E-19   1.86806977878344E-34   2.35991267214097E-19  -1.08891751242746E-17   0.00000000000000E+00
      0.00000000000000E+00   0.00000000000000E+00   0.00000000000000E+00  -1.85102978959916E-19  -1.02257590854800E-34
     -1.85102978959916E-19   4.18183766833912E-18
      1.00000000000000E-03
      0.00000000000000E+00   2.81353124482541E-12   0.00000000000000E+00   0.00000000000000E+00  -1.21492652068273E-11
     -1.02874468879189E-34  -1.21492652068273E-11   4.53144303500362E-18   0.00000000000000E+00   0.00000000000000E+00
      0.00000000000000E+00   0.00000000000000E+00   0.00000000000000E+00   0.00000000000000E+00   0.00000000000000E+00
      2.17524709097019E-18   0.00000000000000E+00   0.00000000000000E+00   0.00000000000000E+00   0.00000000000000E+00
     -3.44934826408670E-19   2.03369647149211E-34  -3.44934826408670E-19  -1.08891418899704E-17   5.00000000000000E-05
      4.99999971774422E-05   0.00000000000000E+00   0.00000000000000E+00   1.21492655517621E-11  -1.00495178270022E-34
      1.21492655517621E-11   4.18245176399657E-18
      2.09333333333333E-03
      0.00000000000000E+00   5.87994744249411E-12   0.00000000000000E+00   0.00000000000000E+00  -2.53905512255819E-11
     -8.72976734189251E-35  -2.53905512255819E-11   4.53141931596472E-18   0.00000000000000E+00   0.00000000000000E+00
      0.00000000000000E+00   0.00000000000000E+00   0.00000000000000E+00   0.00000000000000E+00   0.00000000000000E+00
      2.17456307222531E-18   0.00000000000000E+00   0.00000000000000E+00   0.00000000000000E+00   0.00000000000000E+00
     -1.42511530009260E-19   2.16436603191287E-34  -1.42511530009260E-19  -1.08891055772368E-17   1.04666666666667E-04
      1.04666660767848E-04   0.00000000000000E+00   0.00000000000000E+00   2.53905513680934E-11  -1.29138929772362E-34
      2.53905513680934E-11   4.18312318904678E-18
      3.29600000000000E-03
      0.00000000000000E+00   9.24083115336684E-12   0.00000000000000E+00   0.00000000000000E+00  -3.99033436392758E-11
     -8.56133268048761E-35  -3.99033436392758E-11   4.53139322538310E-18   0.00000000000000E+00   0.00000000000000E+00
      0.00000000000000E+00   0.00000000000000E+00   0.00000000000000E+00   0.00000000000000E+00   0.00000000000000E+00
      2.17381066286849E-18   0.00000000000000E+00   0.00000000000000E+00   0.00000000000000E+00   0.00000000000000E+00
      7.42029894406708E-20   2.02306687341724E-34   7.42029894406710E-20  -1.08890656614894E-17   1.64800000000000E-04
      1.64799990729516E-04   0.00000000000000E+00   0.00000000000000E+00   3.99033435650728E-11  -1.16693360536848E-34
      3.99033435650728E-11   4.18386177323775E-18
      4.61893333333333E-03
      0.00000000000000E+00   1.29227359040140E-11   0.00000000000000E+00   0.00000000000000E+00  -5.58023324071420E-11
     -1.13760148734928E-34  -5.58023324071420E-11   4.53136452618117E-18   0.00000000000000E+00   0.00000000000000E+00
      0.00000000000000E+00   0.00000000000000E+00   0.00000000000000E+00   0.00000000000000E+00   0.00000000000000E+00
      2.17298302619095E-18   0.00000000000000E+00   0.00000000000000E+00   0.00000000000000E+00   0.00000000000000E+00
      3.60173765537832E-19   2.27481102911654E-34   3.60173765537832E-19  -1.08890217883354E-17   2.30946666666667E-04
      2.30946653702454E-04   0.00000000000000E+00   0.00000000000000E+00   5.58023320469683E-11  -1.13720954176727E-34
      5.58023320469683E-11   4.18467423596326E-18
      6.07416000000000E-03
      0.00000000000000E+00   1.69543392027589E-11   0.00000000000000E+00   0.00000000000000E+00  -7.32112738704660E-11
     -9.43591166872791E-35  -7.32112738704660E-11   4.53133295758951E-18   0.00000000000000E+00   0.00000000000000E+00
      0.00000000000000E+00   0.00000000000000E+00   0.00000000000000E+00   0.00000000000000E+00   0.00000000000000E+00
      2.17207264230260E-18   0.00000000000000E+00   0.00000000000000E+00   0.00000000000000E+00   0.00000000000000E+00
      1.57132176491933E-19   2.20481897579433E-34   1.57132176491933E-19  -1.08889735691754E-17   3.03708000000000E-04
      3.03707982991253E-04   0.00000000000000E+00   0.00000000000000E+00   7.32112737133338E-11  -1.26122780892154E-34
      7.32112737133338E-11   4.18556796928326E-18
      7.67490933333333E-03
      0.00000000000000E+00   2.13664592912336E-11   0.00000000000000E+00   0.00000000000000E+00  -9.22632911135830E-11
     -8.07624449964525E-35  -9.22632911135830E-11   4.53129823278094E-18   0.00000000000000E+00   0.00000000000000E+00
      0.00000000000000E+00   0.00000000000000E+00   0.00000000000000E+00   0.00000000000000E+00   0.00000000000000E+00
      2.17107123991561E-18   0.00000000000000E+00   0.00000000000000E+00   0.00000000000000E+00   0.00000000000000E+00
      2.66553195298016E-20   2.02262307116749E-34   2.66553195298018E-20  -1.08889205780385E-17   3.83745466666667E-04
      3.83745445231646E-04   0.00000000000000E+00   0.00000000000000E+00   9.22632910869276E-11  -1.21499862120297E-34
      9.22632910869276E-11   4.18655110534198E-18
      9.43573360000000E-03
      0.00000000000000E+00   2.61921810698676E-11   0.00000000000000E+00   0.00000000000000E+00  -1.13101148031852E-10
     -9.02388862726859E-35  -1.13101148031852E-10   4.53126003626891E-18   0.00000000000000E+00   0.00000000000000E+00
      0.00000000000000E+00   0.00000000000000E+00   0.00000000000000E+00   0.00000000000000E+00   0.00000000000000E+00
      2.16996972132661E-18   0.00000000000000E+00   0.00000000000000E+00   0.00000000000000E+00   0.00000000000000E+00
      9.03943757174973E-20   2.06069414249970E-34   9.03943757174975E-20  -1.08888623481542E-17   4.71786680000000E-04
      4.71786653723787E-04   0.00000000000000E+00   0.00000000000000E+00   1.13101147941457E-10  -1.15830527977285E-34
      1.13101147941457E-10   4.18763259055866E-18
      1.13726402933333E-02
      0.00000000000000E+00   3.14668381910524E-11   0.00000000000000E+00   0.00000000000000E+00  -1.35877438850907E-10
     -1.17735049426389E-34  -1.35877438850907E-10   4.53121802104642E-18   0.00000000000000E+00   0.00000000000000E+00
      0.00000000000000E+00   0.00000000000000E+00   0.00000000000000E+00   0.00000000000000E+00   0.00000000000000E+00
      2.16875807992346E-18   0.00000000000000E+00   0.00000000000000E+00   0.00000000000000E+00   0.00000000000000E+00
      3.27586910966932E-19   2.26647279056730E-34   3.27586910966932E-19  -1.08887983682456E-17   5.68632014666667E-04
      5.68631983098880E-04   0.00000000000000E+00   0.00000000000000E+00   1.35877438523320E-10  -1.08912229630340E-34
      1.35877438523320E-10   4.18882226727578E-18
      1.35032376560000E-02
      0.00000000000000E+00   3.72280939287214E-11   0.00000000000000E+00   0.00000000000000E+00  -1.60754667346580E-10
     -9.72579028416459E-35  -1.60754667346580E-10   4.53117180543970E-18   0.00000000000000E+00   0.00000000000000E+00
      0.00000000000000E+00   0.00000000000000E+00   0.00000000000000E+00   0.00000000000000E+00   0.00000000000000E+00
      2.16742530947118E-18   0.00000000000000E+00   0.00000000000000E+00   0.00000000000000E+00   0.00000000000000E+00
      5.27963125651690E-20   2.01971488017165E-34   5.27963125651692E-20  -1.08887280785281E-17   6.75161882800000E-04
      6.75161845452498E-04   0.00000000000000E+00   0.00000000000000E+00   1.60754667293784E-10  -1.04713585175519E-34
      1.60754667293784E-10   4.19013096361726E-18
      1.58468947549333E-02
      0.00000000000000E+00   4.35158447124938E-11   0.00000000000000E+00   0.00000000000000E+00  -1.87905167210294E-10
     -1.13191393455875E-34  -1.87905167210294E-10   4.53112096964868E-18   0.00000000000000E+00   0.00000000000000E+00
      0.00000000000000E+00   0.00000000000000E+00   0.00000000000000E+00   0.00000000000000E+00   0.00000000000000E+00
      2.16595930436239E-18   0.00000000000000E+00   0.00000000000000E+00   0.00000000000000E+00   0.00000000000000E+00
      1.53069067978326E-19   2.27481780630488E-34   1.53069067978327E-19  -1.08886508663979E-17   7.92344737746667E-04
      7.92344694091262E-04   0.00000000000000E+00   0.00000000000000E+00   1.87905167057225E-10  -1.14290387174614E-34
      1.87905167057225E-10   4.19157059238678E-18
      1.84249175637600E-02
      0.00000000000000E+00   5.03722507425869E-11   0.00000000000000E+00   0.00000000000000E+00  -2.17510831774929E-10
     -1.09353940115010E-34  -2.17510831774929E-10   4.53106505194277E-18   0.00000000000000E+00   0.00000000000000E+00
      0.00000000000000E+00   0.00000000000000E+00   0.00000000000000E+00   0.00000000000000E+00   0.00000000000000E+00
      2.16434674993817E-18   0.00000000000000E+00   0.00000000000000E+00   0.00000000000000E+00   0.00000000000000E+00
      2.06231192731291E-17   2.15099435181308E-34   2.06231192731291E-17  -1.08885660618040E-17   9.21245878188001E-04
      9.21245827654216E-04   0.00000000000000E+00   0.00000000000000E+00   2.17510811151810E-10  -1.05745495066299E-34
      2.17510811151810E-10   4.19315425992306E-18
      2.12607426534693E-02
      0.00000000000000E+00   5.78415228407093E-11   0.00000000000000E+00   0.00000000000000E+00  -2.49762463765204E-10
     -1.04228106061560E-34  -2.49762463765204E-10   4.53100354447802E-18   0.00000000000000E+00   0.00000000000000E+00
      0.00000000000000E+00   0.00000000000000E+00   0.00000000000000E+00   0.00000000000000E+00   0.00000000000000E+00
      2.16257300189279E-18   0.00000000000000E+00   0.00000000000000E+00   0.00000000000000E+00   0.00000000000000E+00
      7.64627984810735E-19   2.08056244064481E-34   7.64627984810735E-19  -1.08884729322906E-17   1.06303713267347E-03
      1.06303707464648E-03   0.00000000000000E+00   0.00000000000000E+00   2.49762463000577E-10  -1.03828138002921E-34
      2.49762463000577E-10   4.19489638591973E-18
      2.43801502521496E-02
      0.00000000000000E+00   6.59697826612153E-11   0.00000000000000E+00   0.00000000000000E+00  -2.84859105586678E-10
     -1.10454227176540E-34  -2.84859105586678E-10   4.53093588869819E-18   0.00000000000000E+00   0.00000000000000E+00
      0.00000000000000E+00   0.00000000000000E+00   0.00000000000000E+00   0.00000000000000E+00   0.00000000000000E+00
      2.16062195368280E-18   0.00000000000000E+00   0.00000000000000E+00   0.00000000000000E+00   0.00000000000000E+00
      1.11892429499303E-18   2.32915444147915E-34   1.11892429499303E-18  -1.08883706777044E-17   1.21900751260748E-03
      1.21900744642622E-03   0.00000000000000E+00   0.00000000000000E+00   2.84859104467753E-10  -1.22461216971374E-34
      2.84859104467753E-10   4.19681283532343E-18
      2.78114986106979E-02
      0.00000000000000E+00   7.48047074425931E-11   0.00000000000000E+00   0.00000000000000E+00  -3.23006601685354E-10
     -9.12970190330407E-35  -3.23006601685354E-10   4.53086147027796E-18   0.00000000000000E+00   0.00000000000000E+00
      0.00000000000000E+00   0.00000000000000E+00   0.00000000000000E+00   0.00000000000000E+00   0.00000000000000E+00
      2.15847589074482E-18   0.00000000000000E+00   0.00000000000000E+00   0.00000000000000E+00   0.00000000000000E+00
      1.80070777327818E-18   1.78543415527011E-34   1.80070777327818E-18  -1.08882584245565E-17   1.39057493053490E-03
      1.39057485549041E-03   0.00000000000000E+00   0.00000000000000E+00   3.23006599884646E-10  -8.72463964939702E-35
      3.23006599884646E-10   4.19892106353379E-18
      3.15859818051010E-02
      0.00000000000000E+00   8.43952440757359E-11   0.00000000000000E+00   0.00000000000000E+00  -3.64415960383734E-10
     -9.64741713832800E-35  -3.64415960383734E-10   4.53077961356392E-18   0.00000000000000E+00   0.00000000000000E+00
      0.00000000000000E+00   0.00000000000000E+00   0.00000000000000E+00   0.00000000000000E+00   0.00000000000000E+00
      2.15611533023423E-18   0.00000000000000E+00   0.00000000000000E+00   0.00000000000000E+00   0.00000000000000E+00
      2.48921845736708E-18   1.97834352415222E-34   2.48921845736708E-18  -1.08881352200637E-17   1.57929909025505E-03
      1.57929900558934E-03   0.00000000000000E+00   0.00000000000000E+00   3.64415957894515E-10  -1.01360181031942E-34
      3.64415957894515E-10   4.20124027626550E-18
      3.57379133189445E-02
      0.00000000000000E+00   9.47909297994705E-11   0.00000000000000E+00   0.00000000000000E+00  -4.09301035844293E-10
     -9.73232408679941E-35  -4.09301035844293E-10   4.53068957546307E-18   0.00000000000000E+00   0.00000000000000E+00
      0.00000000000000E+00   0.00000000000000E+00   0.00000000000000E+00   0.00000000000000E+00   0.00000000000000E+00
      2.15351884484294E-18   0.00000000000000E+00   0.00000000000000E+00   0.00000000000000E+00   0.00000000000000E+00
      3.82006469390105E-18   2.18584248777201E-34   3.82006469390105E-18  -1.08880000258672E-17   1.78689566594722E-03
      1.78689557085256E-03   0.00000000000000E+00   0.00000000000000E+00   4.09301032024228E-10  -1.21261007909207E-34
      4.09301032024228E-10   4.20379160556113E-18
      4.03050379841723E-02
      0.00000000000000E+00   1.06041346908532E-10   0.00000000000000E+00   0.00000000000000E+00  -4.57875608919320E-10
     -7.95098418877229E-35  -4.57875608919320E-10   4.53059053872416E-18   0.00000000000000E+00   0.00000000000000E+00
      0.00000000000000E+00   0.00000000000000E+00   0.00000000000000E+00   0.00000000000000E+00   0.00000000000000E+00
      2.15066286911695E-18   0.00000000000000E+00   0.00000000000000E+00   0.00000000000000E+00   0.00000000000000E+00
      6.98824268761342E-18   1.80773775679008E-34   6.98824268761342E-18  -1.08878517114409E-17   2.01525189920861E-03
      2.01525179282753E-03   0.00000000000000E+00   0.00000000000000E+00   4.57875601931077E-10  -1.01263933791285E-34
      4.57875601931077E-10   4.20659830359984E-18
      4.53288751159228E-02
      0.00000000000000E+00   1.18195193908676E-10   0.00000000000000E+00   0.00000000000000E+00  -5.10349680979206E-10
     -1.27477011106568E-34  -5.10349680979206E-10   4.53048160455196E-18   0.00000000000000E+00   0.00000000000000E+00
      0.00000000000000E+00   0.00000000000000E+00   0.00000000000000E+00   0.00000000000000E+00   0.00000000000000E+00
      2.14752148656608E-18   0.00000000000000E+00   0.00000000000000E+00   0.00000000000000E+00   0.00000000000000E+00
     -3.95366835218041E-17   2.41187448673249E-34  -3.95366835218041E-17  -1.08876890472474E-17   2.26644375579614E-03
      2.26644363722234E-03   0.00000000000000E+00   0.00000000000000E+00   5.10349720515890E-10  -1.13710437566681E-34
      5.10349720515890E-10   4.20968595612933E-18
      5.08550959608485E-02
      0.00000000000000E+00   1.31299247497854E-10   0.00000000000000E+00   0.00000000000000E+00  -5.66924914626971E-10
     -8.64335166747776E-35  -5.66924914626971E-10   4.53036178448949E-18   0.00000000000000E+00   0.00000000000000E+00
      0.00000000000000E+00   0.00000000000000E+00   0.00000000000000E+00   0.00000000000000E+00   0.00000000000000E+00
      2.14406619566163E-18   0.00000000000000E+00   0.00000000000000E+00   0.00000000000000E+00   0.00000000000000E+00
      1.14958951339892E-17   1.95129767780655E-34   1.14958951339892E-17  -1.08875106976752E-17   2.54275479804242E-03
      2.54275466632267E-03   0.00000000000000E+00   0.00000000000000E+00   5.66924903131076E-10  -1.08696251105877E-34
      5.66924903131076E-10   4.21308271752408E-18
      5.69339388902666E-02
      0.00000000000000E+00   1.45397085982131E-10   0.00000000000000E+00   0.00000000000000E+00  -6.27789071186454E-10
     -1.11779191799995E-34  -6.27789071186454E-10   4.53022999149518E-18   0.00000000000000E+00   0.00000000000000E+00
      0.00000000000000E+00   0.00000000000000E+00   0.00000000000000E+00   0.00000000000000E+00   0.00000000000000E+00
      2.14026565265194E-18   0.00000000000000E+00   0.00000000000000E+00   0.00000000000000E+00   0.00000000000000E+00
      2.76012312569005E-17   2.14658900548529E-34   2.76012312569005E-17  -1.08873152138382E-17   2.84669694451333E-03
      2.84669679865068E-03   0.00000000000000E+00   0.00000000000000E+00   6.27789043585223E-10  -1.02879708748534E-34
      6.27789043585223E-10   4.21681956969111E-18
      6.36206661126266E-02
      0.00000000000000E+00   1.60527522138755E-10   0.00000000000000E+00   0.00000000000000E+00  -6.93109329558937E-10
     -1.07472054246248E-34  -6.93109329558937E-10   4.53008503013608E-18   0.00000000000000E+00   0.00000000000000E+00
      0.00000000000000E+00   0.00000000000000E+00   0.00000000000000E+00   0.00000000000000E+00   0.00000000000000E+00
      2.13608538891524E-18   0.00000000000000E+00   0.00000000000000E+00   0.00000000000000E+00   0.00000000000000E+00
      3.44340217811885E-17   2.19194757869050E-34   3.44340217811885E-17  -1.08871010263262E-17   3.18103330563133E-03
      3.18103314458989E-03   0.00000000000000E+00   0.00000000000000E+00   6.93109295124914E-10  -1.11722703622802E-34
      6.93109295124914E-10   4.22093060727490E-18
      7.09760660572226E-02
      0.00000000000000E+00   1.76722831594717E-10   0.00000000000000E+00   0.00000000000000E+00  -7.63024559069183E-10
     -8.95498338892999E-35  -7.63024559069183E-10   4.52992558581060E-18   0.00000000000000E+00   0.00000000000000E+00
      0.00000000000000E+00   0.00000000000000E+00   0.00000000000000E+00   0.00000000000000E+00   0.00000000000000E+00
      2.13148750034903E-18   0.00000000000000E+00   0.00000000000000E+00   0.00000000000000E+00   0.00000000000000E+00
      5.69904593441610E-17   1.92105645689031E-34   5.69904593441610E-17  -1.08868664380287E-17   3.54880330286113E-03
      3.54880312557263E-03   0.00000000000000E+00   0.00000000000000E+00   7.63024502078723E-10  -1.02555811799731E-34
      7.63024502078723E-10   4.22545335186902E-18
      7.90670059962782E-02
      0.00000000000000E+00   1.94006662925748E-10   0.00000000000000E+00   0.00000000000000E+00  -8.37636246121137E-10
     -8.50393542649410E-35  -8.37636246121137E-10   4.52975021290371E-18   0.00000000000000E+00   0.00000000000000E+00
      0.00000000000000E+00   0.00000000000000E+00   0.00000000000000E+00   0.00000000000000E+00   0.00000000000000E+00
      2.12643030603157E-18   0.00000000000000E+00   0.00000000000000E+00   0.00000000000000E+00   0.00000000000000E+00
      4.93616246342142E-17   1.94560657615259E-34   4.93616246342142E-17  -1.08866096171534E-17   3.95335029981391E-03
      3.95335010518637E-03   0.00000000000000E+00   0.00000000000000E+00   8.37636196759511E-10  -1.09521303350318E-34
      8.37636196759511E-10   4.23042909821808E-18
      8.79670399292394E-02
      0.00000000000000E+00   2.12391636985076E-10   0.00000000000000E+00   0.00000000000000E+00  -9.16998345681197E-10
     -1.07407656650524E-34  -9.16998345681197E-10   4.52955732177289E-18   0.00000000000000E+00   0.00000000000000E+00
      0.00000000000000E+00   0.00000000000000E+00   0.00000000000000E+00   0.00000000000000E+00   0.00000000000000E+00
      2.12086797320634E-18   0.00000000000000E+00   0.00000000000000E+00   0.00000000000000E+00   0.00000000000000E+00
      8.19224611606707E-17   2.14653844215157E-34   8.19224611606707E-17  -1.08863285907224E-17   4.39835199646197E-03
      4.39835178339074E-03   0.00000000000000E+00   0.00000000000000E+00   9.16998263758736E-10  -1.07246187564633E-34
      9.16998263758736E-10   4.23590329574316E-18
      9.77570772554967E-02
      0.00000000000000E+00   2.31876740592393E-10   0.00000000000000E+00   0.00000000000000E+00  -1.00110581734848E-09
     -1.00639217631372E-34  -1.00110581734848E-09   4.52934516444509E-18   0.00000000000000E+00   0.00000000000000E+00
      0.00000000000000E+00   0.00000000000000E+00   0.00000000000000E+00   0.00000000000000E+00   0.00000000000000E+00
      2.11475010517268E-18   0.00000000000000E+00   0.00000000000000E+00   0.00000000000000E+00   0.00000000000000E+00
      1.08097566541087E-16   2.07404686476300E-34   1.08097566541087E-16  -1.08860212386196E-17   4.88785386277484E-03
      4.88785363015629E-03   0.00000000000000E+00   0.00000000000000E+00   1.00110570925091E-09  -1.06765468844928E-34
      1.00110570925091E-09   4.24192596900179E-18
      1.07757077255497E-01
      0.00000000000000E+00   2.51005073606847E-10   0.00000000000000E+00   0.00000000000000E+00  -1.08366966540393E-09
     -1.08833111723411E-34  -1.08366966540393E-09   4.52912848167522E-18   0.00000000000000E+00   0.00000000000000E+00
      0.00000000000000E+00   0.00000000000000E+00   0.00000000000000E+00   0.00000000000000E+00   0.00000000000000E+00
      2.10850177934377E-18   0.00000000000000E+00   0.00000000000000E+00   0.00000000000000E+00   0.00000000000000E+00
      1.04303354852634E-16   2.09112489790747E-34   1.04303354852634E-16  -1.08857092057127E-17   5.38785386277483E-03
      5.38785361096689E-03   0.00000000000000E+00   0.00000000000000E+00   1.08366956110057E-09  -1.00279378067336E-34
      1.08366956110057E-09   4.24807894469368E-18
      1.17757077255497E-01
      0.00000000000000E+00   2.69375582408885E-10   0.00000000000000E+00   0.00000000000000E+00  -1.16295915011890E-09
     -1.06511307318589E-34  -1.16295915011890E-09   4.52891182357765E-18   0.00000000000000E+00   0.00000000000000E+00
      0.00000000000000E+00   0.00000000000000E+00   0.00000000000000E+00   0.00000000000000E+00   0.00000000000000E+00
      2.10225420512364E-18   0.00000000000000E+00   0.00000000000000E+00   0.00000000000000E+00   0.00000000000000E+00
      1.52739620489532E-16   2.04504568197668E-34   1.52739620489532E-16  -1.08853990923671E-17   5.88785386277483E-03
      5.88785359253773E-03   0.00000000000000E+00   0.00000000000000E+00   1.16295899737928E-09  -9.79932608790793E-35
      1.16295899737928E-09   4.25423306366581E-18
      1.27757077255497E-01
      0.00000000000000E+00   2.87013257431625E-10   0.00000000000000E+00   0.00000000000000E+00  -1.23908236871479E-09
     -8.92311397578910E-35  -1.23908236871479E-09   4.52869518995955E-18   0.00000000000000E+00   0.00000000000000E+00
      0.00000000000000E+00   0.00000000000000E+00   0.00000000000000E+00   0.00000000000000E+00   0.00000000000000E+00
      2.09600737677503E-18   0.00000000000000E+00   0.00000000000000E+00   0.00000000000000E+00   0.00000000000000E+00
      1.41278104293118E-16   1.81815799362745E-34   1.41278104293118E-16  -1.08850908871182E-17   6.38785386277483E-03
      6.38785357484376E-03   0.00000000000000E+00   0.00000000000000E+00   1.23908222743669E-09  -9.25846596048537E-35
      1.23908222743669E-09   4.26038832038365E-18
      1.37757077255497E-01
      0.00000000000000E+00   3.03942765052226E-10   0.00000000000000E+00   0.00000000000000E+00  -1.31214625481795E-09
     -1.09012885596530E-34  -1.31214625481795E-09   4.52847858062256E-18   0.00000000000000E+00   0.00000000000000E+00
      0.00000000000000E+00   0.00000000000000E+00   0.00000000000000E+00   0.00000000000000E+00   0.00000000000000E+00
      2.08976128852506E-18   0.00000000000000E+00   0.00000000000000E+00   0.00000000000000E+00   0.00000000000000E+00
      1.25695540111966E-16   1.95369231013229E-34   1.25695540111966E-16  -1.08847845784501E-17   6.88785386277483E-03
      6.88785355786021E-03   0.00000000000000E+00   0.00000000000000E+00   1.31214612912241E-09  -8.63563454166987E-35
      1.31214612912241E-09   4.26654470930249E-18
      1.47757077255497E-01
      0.00000000000000E+00   3.20188385784423E-10   0.00000000000000E+00   0.00000000000000E+00  -1.38225595478922E-09
     -1.02892794210523E-34  -1.38225595478922E-09   4.52826199536695E-18   0.00000000000000E+00   0.00000000000000E+00
      0.00000000000000E+00   0.00000000000000E+00   0.00000000000000E+00   0.00000000000000E+00   0.00000000000000E+00
      2.08351593464218E-18   0.00000000000000E+00   0.00000000000000E+00   0.00000000000000E+00   0.00000000000000E+00
      1.17255029097628E-16   1.86487108564312E-34   1.17255029097628E-16  -1.08844801549227E-17   7.38785386277483E-03
      7.38785354156272E-03   0.00000000000000E+00   0.00000000000000E+00   1.38225583753419E-09  -8.35943143537881E-35
      1.38225583753419E-09   4.27270222491352E-18
      1.57757077255497E-01
      0.00000000000000E+00   3.35773874489680E-10   0.00000000000000E+00   0.00000000000000E+00  -1.44951434941001E-09
     -1.22391546908600E-34  -1.44951434941001E-09   4.52804543399532E-18   0.00000000000000E+00   0.00000000000000E+00
      0.00000000000000E+00   0.00000000000000E+00   0.00000000000000E+00   0.00000000000000E+00   0.00000000000000E+00
      2.07727130950775E-18   0.00000000000000E+00   0.00000000000000E+00   0.00000000000000E+00   0.00000000000000E+00
      1.40162388997048E-16   2.11531529438514E-34   1.40162388997048E-16  -1.08841776052765E-17   7.88785386277484E-03
      7.88785352592747E-03   0.00000000000000E+00   0.00000000000000E+00   1.44951420924762E-09  -8.91399825299141E-35
      1.44951420924762E-09   4.27886086177350E-18
      1.67757077255497E-01
      0.00000000000000E+00   3.50722517563538E-10   0.00000000000000E+00   0.00000000000000E+00  -1.51402226739067E-09
     -9.21678103879704E-35  -1.51402226739067E-09   4.52782889630738E-18   0.00000000000000E+00   0.00000000000000E+00
      0.00000000000000E+00   0.00000000000000E+00   0.00000000000000E+00   0.00000000000000E+00   0.00000000000000E+00
      2.07102740748554E-18   0.00000000000000E+00   0.00000000000000E+00   0.00000000000000E+00   0.00000000000000E+00
      1.32848417714108E-16   1.73587788971061E-34   1.32848417714108E-16  -1.08838769182408E-17   8.38785386277484E-03
      8.38785351093108E-03   0.00000000000000E+00   0.00000000000000E+00   1.51402213454225E-09  -8.14199785830906E-35
      1.51402213454225E-09   4.28502061444783E-18
      1.77757077255497E-01
      0.00000000000000E+00   3.65057057264795E-10   0.00000000000000E+00   0.00000000000000E+00  -1.57587812463049E-09
     -1.00152249753547E-34  -1.57587812463049E-09   4.52761238210224E-18   0.00000000000000E+00   0.00000000000000E+00
      0.00000000000000E+00   0.00000000000000E+00   0.00000000000000E+00   0.00000000000000E+00   0.00000000000000E+00
      2.06478422298222E-18   0.00000000000000E+00   0.00000000000000E+00   0.00000000000000E+00   0.00000000000000E+00
      1.42430076104818E-16   1.90907546169082E-34   1.42430076104818E-16  -1.08835780826144E-17   8.88785386277484E-03
      8.88785349655073E-03   0.00000000000000E+00   0.00000000000000E+00   1.57587798220042E-09  -9.07552964155346E-35
      1.57587798220042E-09   4.29118147752992E-18
      1.87757077255497E-01
      0.00000000000000E+00   3.78799656479469E-10   0.00000000000000E+00   0.00000000000000E+00  -1.63517788780100E-09
     -1.02101306303087E-34  -1.63517788780100E-09   4.52739589118009E-18   0.00000000000000E+00   0.00000000000000E+00
      0.00000000000000E+00   0.00000000000000E+00   0.00000000000000E+00   0.00000000000000E+00   0.00000000000000E+00
      2.05854175047190E-18   0.00000000000000E+00   0.00000000000000E+00   0.00000000000000E+00   0.00000000000000E+00
      1.16024827427315E-16   1.90650879426196E-34   1.16024827427315E-16  -1.08832810873095E-17   9.38785386277484E-03
      9.38785348276421E-03   0.00000000000000E+00   0.00000000000000E+00   1.63517777177617E-09  -8.85495731231094E-35
      1.63517777177617E-09   4.29734344565751E-18
      1.97757077255497E-01
      0.00000000000000E+00   3.91971907963042E-10   0.00000000000000E+00   0.00000000000000E+00  -1.69201511819145E-09