DF-ISE text

Info {
  version   = 1.0
  type      = xyplot
  datasets  = [
    "time"
    "source OuterVoltage" "source InnerVoltage" "source QuasiFermiPotential" "source DisplacementCurrent" "source eCurrent"
    "source hCurrent" "source TotalCurrent" "source Charge" "gate OuterVoltage" "gate InnerVoltage"
    "gate QuasiFermiPotential" "gate DisplacementCurrent" "gate eCurrent" "gate hCurrent" "gate TotalCurrent"
    "gate Charge" "substrate OuterVoltage" "substrate InnerVoltage" "substrate QuasiFermiPotential" "substrate DisplacementCurrent"
    "substrate eCurrent" "substrate hCurrent" "substrate TotalCurrent" "substrate Charge" "drain OuterVoltage"
    "drain InnerVoltage" "drain QuasiFermiPotential" "drain DisplacementCurrent" "drain eCurrent" "drain hCurrent"
    "drain TotalCurrent" "drain Charge" ]
  functions = [
    Time
    OuterVoltage InnerVoltage QuasiFermiPotential DisplacementCurrent eCurrent
    hCurrent TotalCurrent Charge OuterVoltage InnerVoltage
    QuasiFermiPotential DisplacementCurrent eCurrent hCurrent TotalCurrent
    Charge OuterVoltage InnerVoltage QuasiFermiPotential DisplacementCurrent
    eCurrent hCurrent TotalCurrent Charge OuterVoltage
    InnerVoltage QuasiFermiPotential DisplacementCurrent eCurrent hCurrent
    TotalCurrent Charge ]
}

Data {
      0.00000000000000E+00
      0.00000000000000E+00   0.00000000000000E+00   0.00000000000000E+00   0.00000000000000E+00   6.35995580428504E-21
     -1.35418144620481E-34   6.35995580428491E-21   4.29353275289279E-18   0.00000000000000E+00   0.00000000000000E+00
      0.00000000000000E+00   0.00000000000000E+00   0.00000000000000E+00   0.00000000000000E+00   0.00000000000000E+00
      1.40119949148933E-18   0.00000000000000E+00   0.00000000000000E+00   0.00000000000000E+00   0.00000000000000E+00
      1.01866805009327E-20   2.79398829903599E-34   1.01866805009330E-20  -9.67320465359888E-18   0.00000000000000E+00
      0.00000000000000E+00   0.00000000000000E+00   0.00000000000000E+00  -1.65466363052177E-20  -1.43980685283118E-34
     -1.65466363052179E-20   3.97847240921677E-18
      0.00000000000000E+00
      0.00000000000000E+00   0.00000000000000E+00   0.00000000000000E+00   0.00000000000000E+00  -2.37675652629020E-20
     -1.21218833820976E-34  -2.37675652629021E-20   4.29226671482022E-18   0.00000000000000E+00   0.00000000000000E+00
      0.00000000000000E+00   0.00000000000000E+00   0.00000000000000E+00   0.00000000000000E+00   0.00000000000000E+00
      1.39699836032703E-18   0.00000000000000E+00   0.00000000000000E+00   0.00000000000000E+00   0.00000000000000E+00
      5.19547887481150E-20   2.68343243280412E-34   5.19547887481152E-20  -9.66668974098590E-18   0.00000000000000E+00
      0.00000000000000E+00   0.00000000000000E+00   0.00000000000000E+00  -2.81872234852129E-20  -1.47124409459435E-34
     -2.81872234852131E-20   3.97742466583864E-18
      1.00000000000000E-03
      0.00000000000000E+00   5.04643817954208E-12   0.00000000000000E+00   0.00000000000000E+00  -2.33157766853340E-11
     -1.43451162168558E-34  -2.33157766853340E-11   4.29224366209445E-18   0.00000000000000E+00   0.00000000000000E+00
      0.00000000000000E+00   0.00000000000000E+00   0.00000000000000E+00   0.00000000000000E+00   0.00000000000000E+00
      1.39636275080992E-18   0.00000000000000E+00   0.00000000000000E+00   0.00000000000000E+00   0.00000000000000E+00
     -9.83520675046881E-20   2.86455815955100E-34  -9.83520675046878E-20  -9.66664450257959E-18   5.00000000000000E-05
      4.99999949462399E-05   0.00000000000000E+00   0.00000000000000E+00   2.33157767836861E-11  -1.43004653786542E-34
      2.33157767836861E-11   3.97803808967520E-18
      2.09333333333333E-03
      0.00000000000000E+00   1.05458865489872E-11   0.00000000000000E+00   0.00000000000000E+00  -4.87245133509663E-11
     -1.29975392349615E-34  -4.87245133509663E-11   4.29221845832286E-18   0.00000000000000E+00   0.00000000000000E+00
      0.00000000000000E+00   0.00000000000000E+00   0.00000000000000E+00   0.00000000000000E+00   0.00000000000000E+00
      1.39566782937930E-18   0.00000000000000E+00   0.00000000000000E+00   0.00000000000000E+00   0.00000000000000E+00
      2.52304155907770E-19   2.76899497921948E-34   2.52304155907770E-19  -9.66659507119315E-18   1.04666666666667E-04
      1.04666656105486E-04   0.00000000000000E+00   0.00000000000000E+00   4.87245130986621E-11  -1.46924105572333E-34
      4.87245130986621E-11   3.97870878349101E-18
      3.29600000000000E-03
      0.00000000000000E+00   1.65725824678168E-11   0.00000000000000E+00   0.00000000000000E+00  -7.65692747199149E-11
     -1.25868320340012E-34  -7.65692747199149E-11   4.29219073483214E-18   0.00000000000000E+00   0.00000000000000E+00
      0.00000000000000E+00   0.00000000000000E+00   0.00000000000000E+00   0.00000000000000E+00   0.00000000000000E+00
      1.39490342984009E-18   0.00000000000000E+00   0.00000000000000E+00   0.00000000000000E+00   0.00000000000000E+00
      2.36172746159655E-19   2.74724628111614E-34   2.36172746159655E-19  -9.66654073195998E-18   1.64800000000000E-04
      1.64799983403390E-04   0.00000000000000E+00   0.00000000000000E+00   7.65692744837421E-11  -1.48856307771602E-34
      7.65692744837421E-11   3.97944656728778E-18
      4.61893333333333E-03
      0.00000000000000E+00   2.31738368145127E-11   0.00000000000000E+00   0.00000000000000E+00  -1.07068559955852E-10
     -1.29800677254886E-34  -1.07068559955852E-10   4.29216023979142E-18   0.00000000000000E+00   0.00000000000000E+00
      0.00000000000000E+00   0.00000000000000E+00   0.00000000000000E+00   0.00000000000000E+00   0.00000000000000E+00
      1.39406260731408E-18   0.00000000000000E+00   0.00000000000000E+00   0.00000000000000E+00   0.00000000000000E+00
      2.98353361718285E-20   2.97811971700358E-34   2.98353361718288E-20  -9.66648100147618E-18   2.30946666666667E-04
      2.30946643459240E-04   0.00000000000000E+00   0.00000000000000E+00   1.07068559926017E-10  -1.68011294445472E-34
      1.07068559926017E-10   3.98025815437069E-18
      6.07416000000000E-03
      0.00000000000000E+00   3.04006336865806E-11   0.00000000000000E+00   0.00000000000000E+00  -1.40457909395959E-10
     -1.37383598184860E-34  -1.40457909395959E-10   4.29212669621585E-18   0.00000000000000E+00   0.00000000000000E+00
      0.00000000000000E+00   0.00000000000000E+00   0.00000000000000E+00   0.00000000000000E+00   0.00000000000000E+00
      1.39313772304606E-18   0.00000000000000E+00   0.00000000000000E+00   0.00000000000000E+00   0.00000000000000E+00
      1.01661917369942E-19   2.79281661212557E-34   1.01661917369943E-19  -9.66641534953769E-18   3.03708000000000E-04
      3.03707969555319E-04   0.00000000000000E+00   0.00000000000000E+00   1.40457909294298E-10  -1.41898063027698E-34
      1.40457909294298E-10   3.98115093027580E-18
      7.67490933333333E-03
      0.00000000000000E+00   3.83077536208193E-11   0.00000000000000E+00   0.00000000000000E+00  -1.76990375711440E-10
     -1.27803765535613E-34  -1.76990375711440E-10   4.29208979945741E-18   0.00000000000000E+00   0.00000000000000E+00
      0.00000000000000E+00   0.00000000000000E+00   0.00000000000000E+00   0.00000000000000E+00   0.00000000000000E+00
      1.39212037514286E-18   0.00000000000000E+00   0.00000000000000E+00   0.00000000000000E+00   0.00000000000000E+00
      2.33510988357079E-19   2.70983817901943E-34   2.33510988357079E-19  -9.66634319478047E-18   3.83745466666667E-04
      3.83745428303434E-04   0.00000000000000E+00   0.00000000000000E+00   1.76990375477929E-10  -1.43180052366330E-34
      1.76990375477929E-10   3.98213302018019E-18
      9.43573360000000E-03
      0.00000000000000E+00   4.69538511764518E-11   0.00000000000000E+00   0.00000000000000E+00  -2.16936938917369E-10
     -1.28709198161135E-34  -2.16936938917369E-10   4.29204921444623E-18   0.00000000000000E+00   0.00000000000000E+00
      0.00000000000000E+00   0.00000000000000E+00   0.00000000000000E+00   0.00000000000000E+00   0.00000000000000E+00
      1.39100132241227E-18   0.00000000000000E+00   0.00000000000000E+00   0.00000000000000E+00   0.00000000000000E+00
      9.46479831612990E-20   2.84920985858791E-34   9.46479831612993E-20  -9.66626389995063E-18   4.71786680000000E-04
      4.71786632978165E-04   0.00000000000000E+00   0.00000000000000E+00   2.16936938822721E-10  -1.56211787697656E-34
      2.16936938822721E-10   3.98321336309213E-18
      1.13726402933333E-02
      0.00000000000000E+00   5.64015251022236E-11   0.00000000000000E+00   0.00000000000000E+00  -2.60586749399322E-10
     -1.28379543740178E-34  -2.60586749399322E-10   4.29200457265718E-18   0.00000000000000E+00   0.00000000000000E+00
      0.00000000000000E+00   0.00000000000000E+00   0.00000000000000E+00   0.00000000000000E+00   0.00000000000000E+00
      1.38977040061741E-18   0.00000000000000E+00   0.00000000000000E+00   0.00000000000000E+00   0.00000000000000E+00
      1.94731567476616E-19   2.86024263563399E-34   1.94731567476616E-19  -9.66617676678203E-18   5.68632014666667E-04
      5.68631958183506E-04   0.00000000000000E+00   0.00000000000000E+00   2.60586749204590E-10  -1.57644719823221E-34
      2.60586749204590E-10   3.98440179350742E-18
      1.35032376560000E-02
      0.00000000000000E+00   6.67173229001156E-11   0.00000000000000E+00   0.00000000000000E+00  -3.08247122855561E-10
     -1.31468322293994E-34  -3.08247122855561E-10   4.29195546877523E-18   0.00000000000000E+00   0.00000000000000E+00
      0.00000000000000E+00   0.00000000000000E+00   0.00000000000000E+00   0.00000000000000E+00   0.00000000000000E+00
      1.38841643039413E-18   0.00000000000000E+00   0.00000000000000E+00   0.00000000000000E+00   0.00000000000000E+00
      3.30009908259591E-19   2.72839987089678E-34   3.30009908259591E-19  -9.66608103045688E-18   6.75161882800000E-04
      6.75161815986150E-04   0.00000000000000E+00   0.00000000000000E+00   3.08247122525552E-10  -1.41371664795684E-34
      3.08247122525552E-10   3.98570913128755E-18
      1.58468947549333E-02
      0.00000000000000E+00   7.79716221687896E-11   0.00000000000000E+00   0.00000000000000E+00  -3.60243227944423E-10
     -1.47291802620753E-34  -3.60243227944423E-10   4.29190145702942E-18   0.00000000000000E+00   0.00000000000000E+00
      0.00000000000000E+00   0.00000000000000E+00   0.00000000000000E+00   0.00000000000000E+00   0.00000000000000E+00
      1.38692711600554E-18   0.00000000000000E+00   0.00000000000000E+00   0.00000000000000E+00   0.00000000000000E+00
      2.41004035807857E-17   2.92162552737412E-34   2.41004035807857E-17  -9.66597585362865E-18   7.92344737746667E-04
      7.92344659662291E-04   0.00000000000000E+00   0.00000000000000E+00   3.60243203844019E-10  -1.44870750116659E-34
      3.60243203844019E-10   3.98714728059372E-18
      1.84249175637600E-02
      0.00000000000000E+00   9.02385302018880E-11   0.00000000000000E+00   0.00000000000000E+00  -4.16917211574020E-10
     -1.43614965540870E-34  -4.16917211574020E-10   4.29184204716291E-18   0.00000000000000E+00   0.00000000000000E+00
      0.00000000000000E+00   0.00000000000000E+00   0.00000000000000E+00   0.00000000000000E+00   0.00000000000000E+00
      1.38528893402676E-18   0.00000000000000E+00   0.00000000000000E+00   0.00000000000000E+00   0.00000000000000E+00
      1.10349082580771E-18   2.81434179853086E-34   1.10349082580772E-18  -9.66586031998639E-18   9.21245878188001E-04
      9.21245787819043E-04   0.00000000000000E+00   0.00000000000000E+00   4.16917210470530E-10  -1.37819214312216E-34
      4.16917210470530E-10   3.98872933879670E-18
      2.12607426534693E-02
      0.00000000000000E+00   1.03595561675757E-10   0.00000000000000E+00   0.00000000000000E+00  -4.78627145677258E-10
     -1.26669638404374E-34  -4.78627145677258E-10   4.29177670000318E-18   0.00000000000000E+00   0.00000000000000E+00
      0.00000000000000E+00   0.00000000000000E+00   0.00000000000000E+00   0.00000000000000E+00   0.00000000000000E+00
      1.38348701096321E-18   0.00000000000000E+00   0.00000000000000E+00   0.00000000000000E+00   0.00000000000000E+00
      1.46161156196359E-18   2.83587080541044E-34   1.46161156196359E-18  -9.66573342734181E-18   1.06303713267347E-03
      1.06303702892826E-03   0.00000000000000E+00   0.00000000000000E+00   4.78627144215647E-10  -1.56917442136669E-34
      4.78627144215647E-10   3.99046971637541E-18
      2.43801502521496E-02
      0.00000000000000E+00   1.18123231338004E-10   0.00000000000000E+00   0.00000000000000E+00  -5.45744859338436E-10
     -1.34485846996154E-34  -5.45744859338436E-10   4.29170482259297E-18   0.00000000000000E+00   0.00000000000000E+00
      0.00000000000000E+00   0.00000000000000E+00   0.00000000000000E+00   0.00000000000000E+00   0.00000000000000E+00
      1.38150498870927E-18   0.00000000000000E+00   0.00000000000000E+00   0.00000000000000E+00   0.00000000000000E+00
      2.23111371288217E-18   2.79202675211832E-34   2.23111371288217E-18  -9.66559408022702E-18   1.21900751260748E-03
      1.21900739431371E-03   0.00000000000000E+00   0.00000000000000E+00   5.45744857107322E-10  -1.44716828215678E-34
      5.45744857107322E-10   3.99238426892478E-18
      2.78114986106979E-02
      0.00000000000000E+00   1.33904486395611E-10   0.00000000000000E+00   0.00000000000000E+00  -6.18653332936020E-10
     -1.25726275672982E-34  -6.18653332936020E-10   4.29162576283891E-18   0.00000000000000E+00   0.00000000000000E+00
      0.00000000000000E+00   0.00000000000000E+00   0.00000000000000E+00   0.00000000000000E+00   0.00000000000000E+00
      1.37932487664715E-18   0.00000000000000E+00   0.00000000000000E+00   0.00000000000000E+00   0.00000000000000E+00
      2.84698879814915E-18   2.70042694825413E-34   2.84698879814915E-18  -9.66544108199299E-18   1.39057493053490E-03
      1.39057479643719E-03   0.00000000000000E+00   0.00000000000000E+00   6.18653330089032E-10  -1.44316419152431E-34
      6.18653330089032E-10   3.99449044250693E-18
      3.15859818051010E-02
      0.00000000000000E+00   1.51023889039729E-10   0.00000000000000E+00   0.00000000000000E+00  -6.97743010820072E-10
     -1.41387660386199E-34  -6.97743010820072E-10   4.29153880363062E-18   0.00000000000000E+00   0.00000000000000E+00
      0.00000000000000E+00   0.00000000000000E+00   0.00000000000000E+00   0.00000000000000E+00   0.00000000000000E+00
      1.37692688906805E-18   0.00000000000000E+00   0.00000000000000E+00   0.00000000000000E+00   0.00000000000000E+00
      4.43916378313813E-18   2.82963153902313E-34   4.43916378313813E-18  -9.66527312640730E-18   1.57929909025505E-03
      1.57929893901338E-03   0.00000000000000E+00   0.00000000000000E+00   6.97743006380908E-10  -1.41575493516114E-34
      6.97743006380908E-10   3.99680743370864E-18
      3.57379133189445E-02
      0.00000000000000E+00   1.69566606724031E-10   0.00000000000000E+00   0.00000000000000E+00  -7.83407021496260E-10
     -1.27505596283040E-34  -7.83407021496260E-10   4.29144315637791E-18   0.00000000000000E+00   0.00000000000000E+00
      0.00000000000000E+00   0.00000000000000E+00   0.00000000000000E+00   0.00000000000000E+00   0.00000000000000E+00
      1.37428926647119E-18   0.00000000000000E+00   0.00000000000000E+00   0.00000000000000E+00   0.00000000000000E+00
      6.16890736382194E-18   2.58905136794113E-34   6.16890736382194E-18  -9.66508878876122E-18   1.78689566594722E-03
      1.78689549613628E-03   0.00000000000000E+00   0.00000000000000E+00   7.83407015327353E-10  -1.31399540511073E-34
      7.83407015327353E-10   3.99935636591213E-18
      4.03050379841723E-02
      0.00000000000000E+00   1.89617062446401E-10   0.00000000000000E+00   0.00000000000000E+00  -8.76035097061773E-10
     -1.56740923892803E-34  -8.76035097061773E-10   4.29133795390959E-18   0.00000000000000E+00   0.00000000000000E+00
      0.00000000000000E+00   0.00000000000000E+00   0.00000000000000E+00   0.00000000000000E+00   0.00000000000000E+00
      1.37138807915337E-18   0.00000000000000E+00   0.00000000000000E+00   0.00000000000000E+00   0.00000000000000E+00
     -3.46842625310625E-17   3.05098909769204E-34  -3.46842625310625E-17  -9.66488651650174E-18   2.01525189920861E-03
      2.01525170931852E-03   0.00000000000000E+00   0.00000000000000E+00   8.76035131746036E-10  -1.48357985876401E-34
      8.76035131746036E-10   4.00216048343878E-18
      4.53288751159228E-02
      0.00000000000000E+00   2.11257340301478E-10   0.00000000000000E+00   0.00000000000000E+00  -9.76006004387741E-10
     -1.36678011850208E-34  -9.76006004387741E-10   4.29122224267123E-18   0.00000000000000E+00   0.00000000000000E+00
      0.00000000000000E+00   0.00000000000000E+00   0.00000000000000E+00   0.00000000000000E+00   0.00000000000000E+00
      1.36819701135031E-18   0.00000000000000E+00   0.00000000000000E+00   0.00000000000000E+00   0.00000000000000E+00
     -5.08354655501350E-17   2.75602537535200E-34  -5.08354655501350E-17  -9.66466461942637E-18   2.26644375579614E-03
      2.26644354423485E-03   0.00000000000000E+00   0.00000000000000E+00   9.76006055223207E-10  -1.38924525684992E-34
      9.76006055223207E-10   4.00524536540484E-18
      5.08550959608485E-02
      0.00000000000000E+00   2.34565158050865E-10   0.00000000000000E+00   0.00000000000000E+00  -1.08367830795850E-09
     -1.42507365180003E-34  -1.08367830795850E-09   4.29109497415317E-18   0.00000000000000E+00   0.00000000000000E+00
      0.00000000000000E+00   0.00000000000000E+00   0.00000000000000E+00   0.00000000000000E+00   0.00000000000000E+00
      1.36468712400569E-18   0.00000000000000E+00   0.00000000000000E+00   0.00000000000000E+00   0.00000000000000E+00
      1.97256362145135E-17   2.75926187756829E-34   1.97256362145135E-17  -9.66442125946851E-18   2.54275479804242E-03
      2.54275456314006E-03   0.00000000000000E+00   0.00000000000000E+00   1.08367828823286E-09  -1.33418822576827E-34
      1.08367828823286E-09   4.00863916130963E-18
      5.69339388902666E-02
      0.00000000000000E+00   2.59611474596251E-10   0.00000000000000E+00   0.00000000000000E+00  -1.19937930310659E-09
     -1.39875832245961E-34  -1.19937930310659E-09   4.29095499547410E-18   0.00000000000000E+00   0.00000000000000E+00
      0.00000000000000E+00   0.00000000000000E+00   0.00000000000000E+00   0.00000000000000E+00   0.00000000000000E+00
      1.36082659410693E-18   0.00000000000000E+00   0.00000000000000E+00   0.00000000000000E+00   0.00000000000000E+00
      2.88642948579318E-17   2.89389266253331E-34   2.88642948579318E-17  -9.66415444019818E-18   2.84669694451333E-03
      2.84669668452898E-03   0.00000000000000E+00   0.00000000000000E+00   1.19937927424230E-09  -1.49513434007369E-34
      1.19937927424230E-09   4.01237285061715E-18
      6.36206661126266E-02
      0.00000000000000E+00   2.86457641081160E-10   0.00000000000000E+00   0.00000000000000E+00  -1.32339178359962E-09
     -1.32778602010228E-34  -1.32339178359962E-09   4.29080103903931E-18   0.00000000000000E+00   0.00000000000000E+00
      0.00000000000000E+00   0.00000000000000E+00   0.00000000000000E+00   0.00000000000000E+00   0.00000000000000E+00
      1.35658042827549E-18   0.00000000000000E+00   0.00000000000000E+00   0.00000000000000E+00   0.00000000000000E+00
      7.70983615513719E-17   2.65438697725289E-34   7.70983615513719E-17  -9.66386199611883E-18   3.18103330563133E-03
      3.18103301876265E-03   0.00000000000000E+00   0.00000000000000E+00   1.32339170650125E-09  -1.32660095715061E-34
      1.32339170650125E-09   4.01648052880402E-18
      7.09760660572226E-02
      0.00000000000000E+00   3.15152054547925E-10   0.00000000000000E+00   0.00000000000000E+00  -1.45593852442811E-09
     -1.40501220676491E-34  -1.45593852442811E-09   4.29063171118193E-18   0.00000000000000E+00   0.00000000000000E+00
      0.00000000000000E+00   0.00000000000000E+00   0.00000000000000E+00   0.00000000000000E+00   0.00000000000000E+00
      1.35191014810320E-18   0.00000000000000E+00   0.00000000000000E+00   0.00000000000000E+00   0.00000000000000E+00
      5.00330369697017E-17   2.66689678901663E-34   5.00330369697017E-17  -9.66354158190518E-18   3.54880330286113E-03
      3.54880298725734E-03   0.00000000000000E+00   0.00000000000000E+00   1.45593847439507E-09  -1.26188458225171E-34
      1.45593847439507E-09   4.02099972262007E-18
      7.90670059962782E-02
      0.00000000000000E+00   3.45726407705988E-10   0.00000000000000E+00   0.00000000000000E+00  -1.59716517942353E-09
     -1.41398742195072E-34  -1.59716517942353E-09   4.29044547968598E-18   0.00000000000000E+00   0.00000000000000E+00
      0.00000000000000E+00   0.00000000000000E+00   0.00000000000000E+00   0.00000000000000E+00   0.00000000000000E+00
      1.34677344442305E-18   0.00000000000000E+00   0.00000000000000E+00   0.00000000000000E+00   0.00000000000000E+00
     -2.65041040211325E-19   2.71487757739725E-34  -2.65041040211324E-19  -9.66319066168577E-18   3.95335029981391E-03
      3.95334995359250E-03   0.00000000000000E+00   0.00000000000000E+00   1.59716517968857E-09  -1.30089015544653E-34
      1.59716517968857E-09   4.02597173757676E-18
      8.79131003296457E-02
      0.00000000000000E+00   3.77998274088687E-10   0.00000000000000E+00   0.00000000000000E+00  -1.74622843076155E-09
     -1.38215434815595E-34  -1.74622843076155E-09   4.29024190131166E-18   0.00000000000000E+00   0.00000000000000E+00
      0.00000000000000E+00   0.00000000000000E+00   0.00000000000000E+00   0.00000000000000E+00   0.00000000000000E+00
      1.34115803560587E-18   0.00000000000000E+00   0.00000000000000E+00   0.00000000000000E+00   0.00000000000000E+00
      2.18862352202576E-19   2.67065220542271E-34   2.18862352202576E-19  -9.66280882121352E-18   4.39565501648229E-03
      4.39565463794344E-03   0.00000000000000E+00   0.00000000000000E+00   1.74622843054269E-09  -1.28849785726675E-34
      1.74622843054269E-09   4.03140888429599E-18
      9.75848301341275E-02
      0.00000000000000E+00   4.11940137355032E-10   0.00000000000000E+00   0.00000000000000E+00  -1.90300041310279E-09
     -1.52717892317487E-34  -1.90300041310279E-09   4.29001936351350E-18   0.00000000000000E+00   0.00000000000000E+00
      0.00000000000000E+00   0.00000000000000E+00   0.00000000000000E+00   0.00000000000000E+00   0.00000000000000E+00
      1.33501937784002E-18   0.00000000000000E+00   0.00000000000000E+00   0.00000000000000E+00   0.00000000000000E+00
      1.70133248933107E-16   2.68152540658202E-34   1.70133248933107E-16  -9.66239352160080E-18   4.87924150670637E-03
      4.87924109417787E-03   0.00000000000000E+00   0.00000000000000E+00   1.90300024296954E-09  -1.15434648340714E-34
      1.90300024296954E-09   4.03735478024729E-18
      1.07584830134127E-01
      0.00000000000000E+00   4.45606900533016E-10   0.00000000000000E+00   0.00000000000000E+00  -2.05849649027601E-09
     -1.30699438001133E-34  -2.05849649027601E-09   4.28978931744499E-18   0.00000000000000E+00   0.00000000000000E+00
      0.00000000000000E+00   0.00000000000000E+00   0.00000000000000E+00   0.00000000000000E+00   0.00000000000000E+00
      1.32867330029690E-18   0.00000000000000E+00   0.00000000000000E+00   0.00000000000000E+00   0.00000000000000E+00
      2.09935794187831E-16   2.52198697202867E-34   2.09935794187831E-16  -9.66196650701446E-18   5.37924150670637E-03
      5.37924106046384E-03   0.00000000000000E+00   0.00000000000000E+00   2.05849628034022E-09  -1.21499259201734E-34
      2.05849628034022E-09   4.04350388927255E-18
      1.17584830134127E-01
      0.00000000000000E+00   4.77872228825446E-10   0.00000000000000E+00   0.00000000000000E+00  -2.20751508925492E-09
     -1.03972862342938E-34  -2.20751508925492E-09   4.28955931668385E-18   0.00000000000000E+00   0.00000000000000E+00
      0.00000000000000E+00   0.00000000000000E+00   0.00000000000000E+00   0.00000000000000E+00   0.00000000000000E+00
      1.32232816530591E-18   0.00000000000000E+00   0.00000000000000E+00   0.00000000000000E+00   0.00000000000000E+00
      2.14453945821546E-16   2.27938597412248E-34   2.14453945821546E-16  -9.66154189939795E-18   5.87924150670637E-03
      5.87924102815334E-03   0.00000000000000E+00   0.00000000000000E+00   2.20751487480097E-09  -1.23965735069310E-34
      2.20751487480097E-09   4.04965441740817E-18
      1.27584830134127E-01
      0.00000000000000E+00   5.08785612284073E-10   0.00000000000000E+00   0.00000000000000E+00  -2.35028542024170E-09
     -1.28267364288378E-34  -2.35028542024170E-09   4.28932936084693E-18   0.00000000000000E+00   0.00000000000000E+00
      0.00000000000000E+00   0.00000000000000E+00   0.00000000000000E+00   0.00000000000000E+00   0.00000000000000E+00
      1.31598396611341E-18   0.00000000000000E+00   0.00000000000000E+00   0.00000000000000E+00   0.00000000000000E+00
      2.13831481871954E-16   2.59469920118722E-34   2.13831481871954E-16  -9.66111968510802E-18   6.37924150670637E-03
      6.37924099719679E-03   0.00000000000000E+00   0.00000000000000E+00   2.35028520641022E-09  -1.31202555830344E-34
      2.35028520641022E-09   4.05580635814770E-18
      1.37584830134127E-01
      0.00000000000000E+00   5.38395718921726E-10   0.00000000000000E+00   0.00000000000000E+00  -2.48703272862918E-09
     -1.14239025611114E-34  -2.48703272862918E-09   4.28909944955148E-18   0.00000000000000E+00   0.00000000000000E+00
      0.00000000000000E+00   0.00000000000000E+00   0.00000000000000E+00   0.00000000000000E+00   0.00000000000000E+00
      1.30964069606581E-18   0.00000000000000E+00   0.00000000000000E+00   0.00000000000000E+00   0.00000000000000E+00
      2.09898942976547E-16   2.23389838751286E-34   2.09898942976547E-16  -9.66069985067471E-18   6.87924150670637E-03
      6.87924096754548E-03   0.00000000000000E+00   0.00000000000000E+00   2.48703251873023E-09  -1.09150813140172E-34
      2.48703251873023E-09   4.06195970505740E-18
      1.47584830134127E-01
      0.00000000000000E+00   5.66750329679391E-10   0.00000000000000E+00   0.00000000000000E+00  -2.61797848935226E-09
     -1.27286945661005E-34  -2.61797848935226E-09   4.28886958240565E-18   0.00000000000000E+00   0.00000000000000E+00
      0.00000000000000E+00   0.00000000000000E+00   0.00000000000000E+00   0.00000000000000E+00   0.00000000000000E+00
      1.30329834845462E-18   0.00000000000000E+00   0.00000000000000E+00   0.00000000000000E+00   0.00000000000000E+00
      2.18805068151861E-16   2.45442825962400E-34   2.18805068151861E-16  -9.66028238254916E-18   7.37924150670637E-03
      7.37924093915150E-03   0.00000000000000E+00   0.00000000000000E+00   2.61797827054720E-09  -1.18155880301395E-34
      2.61797827054720E-09   4.06811445168887E-18
      1.57584830134127E-01
      0.00000000000000E+00   5.93896195810165E-10   0.00000000000000E+00   0.00000000000000E+00  -2.74333913611141E-09
     -1.29143050078336E-34  -2.74333913611141E-09   4.28863975901399E-18   0.00000000000000E+00   0.00000000000000E+00
      0.00000000000000E+00   0.00000000000000E+00   0.00000000000000E+00   0.00000000000000E+00   0.00000000000000E+00
      1.29695691659645E-18   0.00000000000000E+00   0.00000000000000E+00   0.00000000000000E+00   0.00000000000000E+00
      2.05172154607779E-16   2.62558498840509E-34   2.05172154607779E-16  -9.65986726723113E-18   7.87924150670637E-03
      7.87924091196807E-03   0.00000000000000E+00   0.00000000000000E+00   2.74333893093926E-09  -1.33415448762172E-34
      2.74333893093926E-09   4.07427059162069E-18
      1.67584830134127E-01
      0.00000000000000E+00   6.19878940759407E-10   0.00000000000000E+00   0.00000000000000E+00  -2.86332596530420E-09
     -1.27605194679669E-34  -2.86332596530420E-09   4.28840997898059E-18   0.00000000000000E+00   0.00000000000000E+00
      0.00000000000000E+00   0.00000000000000E+00   0.00000000000000E+00   0.00000000000000E+00   0.00000000000000E+00
      1.29061639385120E-18   0.00000000000000E+00   0.00000000000000E+00   0.00000000000000E+00   0.00000000000000E+00
      2.02988664150427E-16   2.39788871221046E-34   2.02988664150427E-16  -9.65945449130309E-18   8.37924150670637E-03
      8.37924088594946E-03   0.00000000000000E+00   0.00000000000000E+00   2.86332576231554E-09  -1.12183676541377E-34
      2.86332576231554E-09   4.08042811847125E-18
      1.77584830134127E-01
      0.00000000000000E+00   6.44742994561357E-10   0.00000000000000E+00   0.00000000000000E+00  -2.97814469293584E-09
     -1.25461268384400E-34  -2.97814469293584E-09   4.28818024191010E-18   0.00000000000000E+00   0.00000000000000E+00
      0.00000000000000E+00   0.00000000000000E+00   0.00000000000000E+00   0.00000000000000E+00   0.00000000000000E+00
      1.28427677363692E-18   0.00000000000000E+00   0.00000000000000E+00   0.00000000000000E+00   0.00000000000000E+00
      2.05644979046120E-16   2.46319760291985E-34   2.05644979046120E-16  -9.65904404145165E-18   8.87924150670637E-03
      8.87924086105119E-03   0.00000000000000E+00   0.00000000000000E+00   2.97814448729086E-09  -1.20858491907585E-34
      2.97814448729086E-09   4.08658702590464E-18
      1.87584830134127E-01
      0.00000000000000E+00   6.68531598973314E-10   0.00000000000000E+00   0.00000000000000E+00  -3.08799550593646E-09
     -1.56300642150864E-34  -3.08799550593646E-09   4.28795054740444E-18   0.00000000000000E+00   0.00000000000000E+00
      0.00000000000000E+00   0.00000000000000E+00   0.00000000000000E+00   0.00000000000000E+00   0.00000000000000E+00
      1.27793804937209E-18   0.00000000000000E+00   0.00000000000000E+00   0.00000000000000E+00   0.00000000000000E+00
      1.98490825070193E-16   2.68127962745270E-34   1.98490825070193E-16  -9.65863590437854E-18   9.37924150670637E-03
      9.37924083722996E-03   0.00000000000000E+00   0.00000000000000E+00   3.08799530744564E-09  -1.11827320594405E-34
      3.08799530744564E-09   4.09274730760199E-18
      1.97584830134128E-01
      0.00000000000000E+00   6.91286741872251E-10   0.00000000000000E+00   0.00000000000000E+00  -3.19307284546551E-09