DF-ISE text

Info {
  version   = 1.0
  type      = xyplot
  datasets  = [
    "time"
    "source OuterVoltage" "source InnerVoltage" "source QuasiFermiPotential" "source DisplacementCurrent" "source eCurrent"
    "source hCurrent" "source TotalCurrent" "source Charge" "gate OuterVoltage" "gate InnerVoltage"
    "gate QuasiFermiPotential" "gate DisplacementCurrent" "gate eCurrent" "gate hCurrent" "gate TotalCurrent"
    "gate Charge" "substrate OuterVoltage" "substrate InnerVoltage" "substrate QuasiFermiPotential" "substrate DisplacementCurrent"
    "substrate eCurrent" "substrate hCurrent" "substrate TotalCurrent" "substrate Charge" "drain OuterVoltage"
    "drain InnerVoltage" "drain QuasiFermiPotential" "drain DisplacementCurrent" "drain eCurrent" "drain hCurrent"
    "drain TotalCurrent" "drain Charge" ]
  functions = [
    Time
    OuterVoltage InnerVoltage QuasiFermiPotential DisplacementCurrent eCurrent
    hCurrent TotalCurrent Charge OuterVoltage InnerVoltage
    QuasiFermiPotential DisplacementCurrent eCurrent hCurrent TotalCurrent
    Charge OuterVoltage InnerVoltage QuasiFermiPotential DisplacementCurrent
    eCurrent hCurrent TotalCurrent Charge OuterVoltage
    InnerVoltage QuasiFermiPotential DisplacementCurrent eCurrent hCurrent
    TotalCurrent Charge ]
}

Data {
      0.00000000000000E+00
      0.00000000000000E+00   0.00000000000000E+00   0.00000000000000E+00   0.00000000000000E+00   1.24794939169424E-21
     -1.21976105686985E-34   1.24794939169412E-21   3.98625985234260E-18   0.00000000000000E+00   0.00000000000000E+00
      0.00000000000000E+00   0.00000000000000E+00   0.00000000000000E+00   0.00000000000000E+00   0.00000000000000E+00
      2.55006674737111E-18   0.00000000000000E+00   0.00000000000000E+00   0.00000000000000E+00   0.00000000000000E+00
      4.70379613332041E-22   3.38147331980279E-34   4.70379613332379E-22  -9.83136616874894E-18   0.00000000000000E+00
      0.00000000000000E+00   0.00000000000000E+00   0.00000000000000E+00  -1.71832900502628E-21  -2.16171226293294E-34
     -1.71832900502650E-21   3.29503956903526E-18
      0.00000000000000E+00
      0.00000000000000E+00   0.00000000000000E+00   0.00000000000000E+00   0.00000000000000E+00   7.67786629502861E-21
     -8.96484429330317E-35   7.67786629502852E-21   3.98450977497099E-18   0.00000000000000E+00   0.00000000000000E+00
      0.00000000000000E+00   0.00000000000000E+00   0.00000000000000E+00   0.00000000000000E+00   0.00000000000000E+00
      2.54442246120748E-18   0.00000000000000E+00   0.00000000000000E+00   0.00000000000000E+00   0.00000000000000E+00
      1.36324867708776E-20   3.38682379427117E-34   1.36324867708779E-20  -9.82270602864807E-18   0.00000000000000E+00
      0.00000000000000E+00   0.00000000000000E+00   0.00000000000000E+00  -2.13103530659062E-20  -2.49033936494085E-34
     -2.13103530659064E-20   3.29377379246960E-18
      1.00000000000000E-03
      0.00000000000000E+00   2.34071072000674E-12   0.00000000000000E+00   0.00000000000000E+00  -9.62018161713107E-12
     -8.91727748313658E-35  -9.62018161713107E-12   3.98449413217619E-18   0.00000000000000E+00   0.00000000000000E+00
      0.00000000000000E+00   0.00000000000000E+00   0.00000000000000E+00   0.00000000000000E+00   0.00000000000000E+00
      2.54393121596853E-18   0.00000000000000E+00   0.00000000000000E+00   0.00000000000000E+00   0.00000000000000E+00
     -1.39478139460511E-19   3.00170225352895E-34  -1.39478139460511E-19  -9.82268767142576E-18   5.00000000000000E-05
      4.99999975940280E-05   0.00000000000000E+00   0.00000000000000E+00   9.62018175660920E-12  -2.10997450521529E-34
      9.62018175660920E-12   3.29426232328101E-18
      2.09333333333333E-03
      0.00000000000000E+00   4.89198217967898E-12   0.00000000000000E+00   0.00000000000000E+00  -2.01057251381555E-11
     -1.52259666403222E-34  -2.01057251381555E-11   3.98447702965123E-18   0.00000000000000E+00   0.00000000000000E+00
      0.00000000000000E+00   0.00000000000000E+00   0.00000000000000E+00   0.00000000000000E+00   0.00000000000000E+00
      2.54339413026332E-18   0.00000000000000E+00   0.00000000000000E+00   0.00000000000000E+00   0.00000000000000E+00
      2.86769018704794E-20   3.57142075114253E-34   2.86769018704798E-20  -9.82266762178687E-18   1.04666666666667E-04
      1.04666661638296E-04   0.00000000000000E+00   0.00000000000000E+00   2.01057251094786E-11  -2.04882408711031E-34
      2.01057251094786E-11   3.29479646187232E-18
      3.29600000000000E-03
      0.00000000000000E+00   7.68846990322160E-12   0.00000000000000E+00   0.00000000000000E+00  -3.15990651518036E-11
     -1.03458997893036E-34  -3.15990651518036E-11   3.98445821719395E-18   0.00000000000000E+00   0.00000000000000E+00
      0.00000000000000E+00   0.00000000000000E+00   0.00000000000000E+00   0.00000000000000E+00   0.00000000000000E+00
      2.54280334694462E-18   0.00000000000000E+00   0.00000000000000E+00   0.00000000000000E+00   0.00000000000000E+00
      1.07155547417287E-20   3.09058503938648E-34   1.07155547417290E-20  -9.82264559240974E-18   1.64800000000000E-04
      1.64799992097175E-04   0.00000000000000E+00   0.00000000000000E+00   3.15990651410880E-11  -2.05599506045612E-34
      3.15990651410880E-11   3.29538402827113E-18
      4.61893333333333E-03
      0.00000000000000E+00   1.07523610742875E-11   0.00000000000000E+00   0.00000000000000E+00  -4.41913816571388E-11
     -1.14800527679024E-34  -4.41913816571388E-11   3.98443752387945E-18   0.00000000000000E+00   0.00000000000000E+00
      0.00000000000000E+00   0.00000000000000E+00   0.00000000000000E+00   0.00000000000000E+00   0.00000000000000E+00
      2.54215349853932E-18   0.00000000000000E+00   0.00000000000000E+00   0.00000000000000E+00   0.00000000000000E+00
      4.96090884585591E-20   3.03585833573646E-34   4.96090884585594E-20  -9.82262139059217E-18   2.30946666666667E-04
      2.30946655614537E-04   0.00000000000000E+00   0.00000000000000E+00   4.41913816075297E-11  -1.88785305894622E-34
      4.41913816075297E-11   3.29603036817341E-18
      6.07416000000000E-03
      0.00000000000000E+00   1.41076129751011E-11   0.00000000000000E+00   0.00000000000000E+00  -5.79811148518084E-11
     -1.04638816517681E-34  -5.79811148518084E-11   3.98441476170439E-18   0.00000000000000E+00   0.00000000000000E+00
      0.00000000000000E+00   0.00000000000000E+00   0.00000000000000E+00   0.00000000000000E+00   0.00000000000000E+00
      2.54143868130314E-18   0.00000000000000E+00   0.00000000000000E+00   0.00000000000000E+00   0.00000000000000E+00
      7.29250313013449E-21   3.36465754824992E-34   7.29250313013483E-21  -9.82259480546087E-18   3.03708000000000E-04
      3.03707985499084E-04   0.00000000000000E+00   0.00000000000000E+00   5.79811148445159E-11  -2.31826938307311E-34
      5.79811148445159E-11   3.29674136245332E-18
      7.67490933333333E-03
      0.00000000000000E+00   1.77800247923440E-11   0.00000000000000E+00   0.00000000000000E+00  -7.30742266467608E-11
     -1.57559513917879E-34  -7.30742266467608E-11   3.98438972388221E-18   0.00000000000000E+00   0.00000000000000E+00
      0.00000000000000E+00   0.00000000000000E+00   0.00000000000000E+00   0.00000000000000E+00   0.00000000000000E+00
      2.54065240169198E-18   0.00000000000000E+00   0.00000000000000E+00   0.00000000000000E+00   0.00000000000000E+00
      5.14219753028943E-20   3.62798502083683E-34   5.14219753028947E-20  -9.82256560638143E-18   3.83745466666667E-04
      3.83745448390982E-04   0.00000000000000E+00   0.00000000000000E+00   7.30742265953388E-11  -2.05238988165804E-34
      7.30742265953388E-11   3.29752348080726E-18
      9.43573360000000E-03
      0.00000000000000E+00   2.17972534812460E-11   0.00000000000000E+00   0.00000000000000E+00  -8.95844416620007E-11
     -1.41279090398648E-34  -8.95844416620007E-11   3.98436218296842E-18   0.00000000000000E+00   0.00000000000000E+00
      0.00000000000000E+00   0.00000000000000E+00   0.00000000000000E+00   0.00000000000000E+00   0.00000000000000E+00
      2.53978751750104E-18   0.00000000000000E+00   0.00000000000000E+00   0.00000000000000E+00   0.00000000000000E+00
      9.11070525980854E-20   3.70286522053307E-34   9.11070525980857E-20  -9.82253354125826E-18   4.71786680000000E-04
      4.71786657595113E-04   0.00000000000000E+00   0.00000000000000E+00   8.95844415708936E-11  -2.29007431654659E-34
      8.95844415708936E-11   3.29838384078880E-18
      1.13726402933333E-02
      0.00000000000000E+00   2.61889298239344E-11   0.00000000000000E+00   0.00000000000000E+00  -1.07633429160499E-10
     -1.75377367704891E-34  -1.07633429160499E-10   3.98433188879902E-18   0.00000000000000E+00   0.00000000000000E+00
      0.00000000000000E+00   0.00000000000000E+00   0.00000000000000E+00   0.00000000000000E+00   0.00000000000000E+00
      2.53883617314182E-18   0.00000000000000E+00   0.00000000000000E+00   0.00000000000000E+00   0.00000000000000E+00
      1.07640864437810E-19   4.22862870160744E-34   1.07640864437810E-19  -9.82249833471914E-18   5.68632014666667E-04
      5.68631987747704E-04   0.00000000000000E+00   0.00000000000000E+00   1.07633429052858E-10  -2.47485502455853E-34
      1.07633429052858E-10   3.29933027277831E-18
      1.35032376560000E-02
      0.00000000000000E+00   3.09866191866832E-11   0.00000000000000E+00   0.00000000000000E+00  -1.27350913576821E-10
     -1.52981514999082E-34  -1.27350913576821E-10   3.98429856622395E-18   0.00000000000000E+00   0.00000000000000E+00
      0.00000000000000E+00   0.00000000000000E+00   0.00000000000000E+00   0.00000000000000E+00   0.00000000000000E+00
      2.53778972847562E-18   0.00000000000000E+00   0.00000000000000E+00   0.00000000000000E+00   0.00000000000000E+00
      1.61753893651632E-17   3.90988028640223E-34   1.61753893651632E-17  -9.82245968618701E-18   6.75161882800000E-04
      6.75161850949642E-04   0.00000000000000E+00   0.00000000000000E+00   1.27350897401431E-10  -2.38006513641141E-34
      1.27350897401431E-10   3.30037139148742E-18
      1.58468947549333E-02
      0.00000000000000E+00   3.62238474034296E-11   0.00000000000000E+00   0.00000000000000E+00  -1.48874565709930E-10
     -1.19300873279888E-34  -1.48874565709930E-10   3.98426191261448E-18   0.00000000000000E+00   0.00000000000000E+00
      0.00000000000000E+00   0.00000000000000E+00   0.00000000000000E+00   0.00000000000000E+00   0.00000000000000E+00
      2.53663868056686E-18   0.00000000000000E+00   0.00000000000000E+00   0.00000000000000E+00   0.00000000000000E+00
      1.77611204138508E-19   3.25918119546806E-34   1.77611204138508E-19  -9.82241726784154E-18   7.92344737746667E-04
      7.92344700513139E-04   0.00000000000000E+00   0.00000000000000E+00   1.48874565532319E-10  -2.06617246266918E-34
      1.48874565532319E-10   3.30151667466021E-18
      1.84249175637600E-02
      0.00000000000000E+00   4.19360398242667E-11   0.00000000000000E+00   0.00000000000000E+00  -1.72349979867009E-10
     -1.27305295795531E-34  -1.72349979867009E-10   3.98422159512295E-18   0.00000000000000E+00   0.00000000000000E+00
      0.00000000000000E+00   0.00000000000000E+00   0.00000000000000E+00   0.00000000000000E+00   0.00000000000000E+00
      2.53537257765359E-18   0.00000000000000E+00   0.00000000000000E+00   0.00000000000000E+00   0.00000000000000E+00
      2.69049917605558E-19   3.29011795328152E-34   2.69049917605558E-19  -9.82237072247586E-18   9.21245878188001E-04
      9.21245835083101E-04   0.00000000000000E+00   0.00000000000000E+00   1.72349979597960E-10  -2.01706499532621E-34
      1.72349979597960E-10   3.30277654969931E-18
      2.12607426534693E-02
      0.00000000000000E+00   4.81604478396536E-11   0.00000000000000E+00   0.00000000000000E+00  -1.97930140558517E-10
     -1.21248959837094E-34  -1.97930140558517E-10   3.98417724766993E-18   0.00000000000000E+00   0.00000000000000E+00
      0.00000000000000E+00   0.00000000000000E+00   0.00000000000000E+00   0.00000000000000E+00   0.00000000000000E+00
      2.53397992456259E-18   0.00000000000000E+00   0.00000000000000E+00   0.00000000000000E+00   0.00000000000000E+00
      3.47543496971853E-19   3.33524125751297E-34   3.47543496971853E-19  -9.82231966125125E-18   1.06303713267347E-03
      1.06303708317073E-03   0.00000000000000E+00   0.00000000000000E+00   1.97930140210973E-10  -2.12275165914202E-34
      1.97930140210973E-10   3.30416248901875E-18
      2.43801502521496E-02
      0.00000000000000E+00   5.49359894045540E-11   0.00000000000000E+00   0.00000000000000E+00  -2.25774872392816E-10
     -1.15255216627672E-34  -2.25774872392816E-10   3.98412846763179E-18   0.00000000000000E+00   0.00000000000000E+00
      0.00000000000000E+00   0.00000000000000E+00   0.00000000000000E+00   0.00000000000000E+00   0.00000000000000E+00
      2.53244807873197E-18   0.00000000000000E+00   0.00000000000000E+00   0.00000000000000E+00   0.00000000000000E+00
      5.33761643056669E-19   3.45999823940768E-34   5.33761643056669E-19  -9.82226366137862E-18   1.21900751260748E-03
      1.21900745614043E-03   0.00000000000000E+00   0.00000000000000E+00   2.25774871859054E-10  -2.30744607313096E-34
      2.25774871859054E-10   3.30568711501485E-18
      2.78114986106979E-02
      0.00000000000000E+00   6.23030077372622E-11   0.00000000000000E+00   0.00000000000000E+00  -2.56049906015009E-10
     -1.17137378029345E-34  -2.56049906015009E-10   3.98407481219921E-18   0.00000000000000E+00   0.00000000000000E+00
      0.00000000000000E+00   0.00000000000000E+00   0.00000000000000E+00   0.00000000000000E+00   0.00000000000000E+00
      2.53076313590298E-18   0.00000000000000E+00   0.00000000000000E+00   0.00000000000000E+00   0.00000000000000E+00
      7.87707621406066E-19   3.45403776007107E-34   7.87707621406066E-19  -9.82220226372817E-18   1.39057493053490E-03
      1.39057486649558E-03   0.00000000000000E+00   0.00000000000000E+00   2.56049905227301E-10  -2.28266397977762E-34
      2.56049905227301E-10   3.30736431562597E-18
      3.15859818051010E-02
      0.00000000000000E+00   7.03030016298572E-11   0.00000000000000E+00   0.00000000000000E+00  -2.88925591255885E-10
     -1.45371092509918E-34  -2.88925591255885E-10   3.98401579437430E-18   0.00000000000000E+00   0.00000000000000E+00
      0.00000000000000E+00   0.00000000000000E+00   0.00000000000000E+00   0.00000000000000E+00   0.00000000000000E+00
      2.52890980447099E-18   0.00000000000000E+00   0.00000000000000E+00   0.00000000000000E+00   0.00000000000000E+00
      1.14522905814251E-18   3.73241981825035E-34   1.14522905814251E-18  -9.82213497040986E-18   1.57929909025505E-03
      1.57929901799287E-03   0.00000000000000E+00   0.00000000000000E+00   2.88925590110656E-10  -2.27870889315117E-34
      2.88925590110656E-10   3.30920937156456E-18
      3.57379133189445E-02
      0.00000000000000E+00   7.89781795837510E-11   0.00000000000000E+00   0.00000000000000E+00  -3.24575186539040E-10
     -1.43318707604259E-34  -3.24575186539040E-10   3.98395087857019E-18   0.00000000000000E+00   0.00000000000000E+00
      0.00000000000000E+00   0.00000000000000E+00   0.00000000000000E+00   0.00000000000000E+00   0.00000000000000E+00
      2.52687126737399E-18   0.00000000000000E+00   0.00000000000000E+00   0.00000000000000E+00   0.00000000000000E+00
      1.15359387860895E-17   3.68052742073600E-34   1.15359387860895E-17  -9.82206124235329E-18   1.78689566594722E-03
      1.78689558476822E-03   0.00000000000000E+00   0.00000000000000E+00   3.24575175003102E-10  -2.24734034469341E-34
      3.24575175003102E-10   3.31123909640913E-18
      4.03050379841723E-02
      0.00000000000000E+00   8.83708970519351E-11   0.00000000000000E+00   0.00000000000000E+00  -3.63172577664351E-10
     -8.81341894413632E-35  -3.63172577664351E-10   3.98387947577463E-18   0.00000000000000E+00   0.00000000000000E+00
      0.00000000000000E+00   0.00000000000000E+00   0.00000000000000E+00   0.00000000000000E+00   0.00000000000000E+00
      2.52462903029352E-18   0.00000000000000E+00   0.00000000000000E+00   0.00000000000000E+00   0.00000000000000E+00
      2.48519327021117E-18   3.16072600807758E-34   2.48519327021117E-18  -9.82198049693711E-18   2.01525189920861E-03
      2.01525180837527E-03   0.00000000000000E+00   0.00000000000000E+00   3.63172575179158E-10  -2.27938411366394E-34
      3.63172575179158E-10   3.31347199086897E-18
      4.53288751159228E-02
      0.00000000000000E+00   9.85230118559157E-11   0.00000000000000E+00   0.00000000000000E+00  -4.04889551166500E-10
     -9.55180362978440E-35  -4.04889551166500E-10   3.98380093823375E-18   0.00000000000000E+00   0.00000000000000E+00
      0.00000000000000E+00   0.00000000000000E+00   0.00000000000000E+00   0.00000000000000E+00   0.00000000000000E+00
      2.52216275482061E-18   0.00000000000000E+00   0.00000000000000E+00   0.00000000000000E+00   0.00000000000000E+00
      3.56807840684634E-18   3.07268593766312E-34   3.56807840684634E-18  -9.82189210572555E-18   2.26644375579614E-03
      2.26644365452792E-03   0.00000000000000E+00   0.00000000000000E+00   4.04889547598421E-10  -2.11750557468468E-34
      4.04889547598421E-10   3.31592841267116E-18
      5.08550959608485E-02
      0.00000000000000E+00   1.09475030864610E-10   0.00000000000000E+00   0.00000000000000E+00  -4.49892181624011E-10
     -1.14536923337934E-34  -4.49892181624011E-10   3.98371455360988E-18   0.00000000000000E+00   0.00000000000000E+00
      0.00000000000000E+00   0.00000000000000E+00   0.00000000000000E+00   0.00000000000000E+00   0.00000000000000E+00
      2.51945007511556E-18   0.00000000000000E+00   0.00000000000000E+00   0.00000000000000E+00   0.00000000000000E+00
      5.17354641245528E-18   3.07567948155571E-34   5.17354641245528E-18  -9.82179539239791E-18   2.54275479804242E-03
      2.54275468551718E-03   0.00000000000000E+00   0.00000000000000E+00   4.49892176450465E-10  -1.93031024817637E-34
      4.49892176450465E-10   3.31863076367249E-18
      5.69339388902666E-02
      0.00000000000000E+00   1.21264982808935E-10   0.00000000000000E+00   0.00000000000000E+00  -4.98336598071666E-10
     -1.32679073752548E-34  -4.98336598071666E-10   3.98361953856050E-18   0.00000000000000E+00   0.00000000000000E+00
      0.00000000000000E+00   0.00000000000000E+00   0.00000000000000E+00   0.00000000000000E+00   0.00000000000000E+00
      2.51646639643573E-18   0.00000000000000E+00   0.00000000000000E+00   0.00000000000000E+00   0.00000000000000E+00
      6.94998728465316E-18   3.38394243067245E-34   6.94998728465316E-18  -9.82168963095577E-18   2.84669694451333E-03
      2.84669681986979E-03   0.00000000000000E+00   0.00000000000000E+00   4.98336591121678E-10  -2.05715169314696E-34
      4.98336591121678E-10   3.32160369595955E-18
      6.36206661126266E-02
      0.00000000000000E+00   1.33927333678955E-10   0.00000000000000E+00   0.00000000000000E+00  -5.50363831581885E-10
     -1.32022738628912E-34  -5.50363831581885E-10   3.98351503168284E-18   0.00000000000000E+00   0.00000000000000E+00
      0.00000000000000E+00   0.00000000000000E+00   0.00000000000000E+00   0.00000000000000E+00   0.00000000000000E+00
      2.51318467376276E-18   0.00000000000000E+00   0.00000000000000E+00   0.00000000000000E+00   0.00000000000000E+00
     -2.77676821869177E-17   3.30407902072904E-34  -2.77676821869177E-17  -9.82157404433777E-18   3.18103330563133E-03
      3.18103316797283E-03   0.00000000000000E+00   0.00000000000000E+00   5.50363859349566E-10  -1.98385163443992E-34
      5.50363859349566E-10   3.32487433889217E-18
      7.09760660572226E-02
      0.00000000000000E+00   1.47491346877851E-10   0.00000000000000E+00   0.00000000000000E+00  -6.06093717083949E-10
     -1.13065935265483E-34  -6.06093717083949E-10   3.98340008576064E-18   0.00000000000000E+00   0.00000000000000E+00
      0.00000000000000E+00   0.00000000000000E+00   0.00000000000000E+00   0.00000000000000E+00   0.00000000000000E+00
      2.50957516858275E-18   0.00000000000000E+00   0.00000000000000E+00   0.00000000000000E+00   0.00000000000000E+00
      1.48931470684090E-17   3.34658371885679E-34   1.48931470684090E-17  -9.82144780359360E-18   3.54880330286113E-03
      3.54880315126096E-03   0.00000000000000E+00   0.00000000000000E+00   6.06093702190802E-10  -2.21592436620196E-34
      6.06093702190802E-10   3.32847254925021E-18
      7.90670059962782E-02
      0.00000000000000E+00   1.61979437531212E-10   0.00000000000000E+00   0.00000000000000E+00  -6.65617877815704E-10
     -1.18338429370150E-34  -6.65617877815704E-10   3.98327365924535E-18   0.00000000000000E+00   0.00000000000000E+00
      0.00000000000000E+00   0.00000000000000E+00   0.00000000000000E+00   0.00000000000000E+00   0.00000000000000E+00
      2.50560518167401E-18   0.00000000000000E+00   0.00000000000000E+00   0.00000000000000E+00   0.00000000000000E+00
     -2.44123320053329E-18   3.14429656943687E-34  -2.44123320053329E-18  -9.82131002778213E-18   3.95335029981391E-03
      3.95335013332230E-03   0.00000000000000E+00   0.00000000000000E+00   6.65617880256937E-10  -1.96091227573537E-34
      6.65617880256937E-10   3.33243118686277E-18
      8.79670399292394E-02
      0.00000000000000E+00   1.77405174446534E-10   0.00000000000000E+00   0.00000000000000E+00  -7.28991532215396E-10
     -1.01014786177367E-34  -7.28991532215396E-10   3.98313460689744E-18   0.00000000000000E+00   0.00000000000000E+00
      0.00000000000000E+00   0.00000000000000E+00   0.00000000000000E+00   0.00000000000000E+00   0.00000000000000E+00
      2.50123875960983E-18   0.00000000000000E+00   0.00000000000000E+00   0.00000000000000E+00   0.00000000000000E+00
      3.17366261560262E-17   2.98112255712338E-34   3.17366261560262E-17  -9.82115978487851E-18   4.39835199646197E-03
      4.39835181411519E-03   0.00000000000000E+00   0.00000000000000E+00   7.28991500478769E-10  -1.97097469534970E-34
      7.28991500478769E-10   3.33678641837126E-18
      9.77570772554967E-02
      0.00000000000000E+00   1.93771163509496E-10   0.00000000000000E+00   0.00000000000000E+00  -7.96224663622467E-10
     -1.03160918257387E-34  -7.96224663622467E-10   3.98298166950200E-18   0.00000000000000E+00   0.00000000000000E+00
      0.00000000000000E+00   0.00000000000000E+00   0.00000000000000E+00   0.00000000000000E+00   0.00000000000000E+00
      2.49643637226065E-18   0.00000000000000E+00   0.00000000000000E+00   0.00000000000000E+00   0.00000000000000E+00
      4.32538039286497E-17   2.95669676097171E-34   4.32538039286497E-17  -9.82099609374051E-18   4.88785386277484E-03
      4.88785366360654E-03   0.00000000000000E+00   0.00000000000000E+00   7.96224620368664E-10  -1.92508757839784E-34
      7.96224620368664E-10   3.34157805197782E-18
      1.07757077255497E-01
      0.00000000000000E+00   2.09855463093538E-10   0.00000000000000E+00   0.00000000000000E+00  -8.62297194049363E-10
     -1.17085601870958E-34  -8.62297194049363E-10   3.98282547376719E-18   0.00000000000000E+00   0.00000000000000E+00
      0.00000000000000E+00   0.00000000000000E+00   0.00000000000000E+00   0.00000000000000E+00   0.00000000000000E+00
      2.49153171665283E-18   0.00000000000000E+00   0.00000000000000E+00   0.00000000000000E+00   0.00000000000000E+00
      5.29933159489363E-17   2.98463888429885E-34   5.29933159489363E-17  -9.82083058553162E-18   5.38785386277483E-03
      5.38785364707459E-03   0.00000000000000E+00   0.00000000000000E+00   8.62297141056047E-10  -1.81378286558927E-34
      8.62297141056047E-10   3.34647339511159E-18
      1.17757077255497E-01
      0.00000000000000E+00   2.25320029458894E-10   0.00000000000000E+00   0.00000000000000E+00  -9.25820648493468E-10
     -1.20712806774268E-34  -9.25820648493468E-10   3.98266929970304E-18   0.00000000000000E+00   0.00000000000000E+00
      0.00000000000000E+00   0.00000000000000E+00   0.00000000000000E+00   0.00000000000000E+00   0.00000000000000E+00
      2.48662778934270E-18   0.00000000000000E+00   0.00000000000000E+00   0.00000000000000E+00   0.00000000000000E+00
      3.36630662752148E-17   3.19690603941201E-34   3.36630662752148E-17  -9.82066677736944E-18   5.88785386277483E-03
      5.88785363117972E-03   0.00000000000000E+00   0.00000000000000E+00   9.25820614830401E-10  -1.98977797166933E-34
      9.25820614830401E-10   3.35136968832368E-18
      1.27757077255497E-01
      0.00000000000000E+00   2.40184508194853E-10   0.00000000000000E+00   0.00000000000000E+00  -9.86876126384736E-10
     -1.25218493672398E-34  -9.86876126384736E-10   3.98251314710477E-18   0.00000000000000E+00   0.00000000000000E+00
      0.00000000000000E+00   0.00000000000000E+00   0.00000000000000E+00   0.00000000000000E+00   0.00000000000000E+00
      2.48172458444435E-18   0.00000000000000E+00   0.00000000000000E+00   0.00000000000000E+00   0.00000000000000E+00
      5.68122440422226E-17   3.30294245261847E-34   5.68122440422226E-17  -9.82050465775864E-18   6.38785386277483E-03
      6.38785361590168E-03   0.00000000000000E+00   0.00000000000000E+00   9.86876069572493E-10  -2.05075751589449E-34
      9.86876069572493E-10   3.35626692620951E-18
      1.37757077255497E-01
      0.00000000000000E+00   2.54468375395417E-10   0.00000000000000E+00   0.00000000000000E+00  -1.04554391382520E-09
     -1.13217503775148E-34  -1.04554391382520E-09   3.98235701576553E-18   0.00000000000000E+00   0.00000000000000E+00
      0.00000000000000E+00   0.00000000000000E+00   0.00000000000000E+00   0.00000000000000E+00   0.00000000000000E+00
      2.47682209604985E-18   0.00000000000000E+00   0.00000000000000E+00   0.00000000000000E+00   0.00000000000000E+00
      5.16307770633539E-17   2.84930894263798E-34   5.16307770633539E-17  -9.82034421519099E-18   6.88785386277483E-03
      6.88785360122047E-03   0.00000000000000E+00   0.00000000000000E+00   1.04554386219442E-09  -1.71713390488650E-34
      1.04554386219442E-09   3.36116510337560E-18
      1.47757077255497E-01
      0.00000000000000E+00   2.68190772338770E-10   0.00000000000000E+00   0.00000000000000E+00  -1.10190290591798E-09
     -1.27490797109127E-34  -1.10190290591798E-09   3.98220090548013E-18   0.00000000000000E+00   0.00000000000000E+00
      0.00000000000000E+00   0.00000000000000E+00   0.00000000000000E+00   0.00000000000000E+00   0.00000000000000E+00
      2.47192031837356E-18   0.00000000000000E+00   0.00000000000000E+00   0.00000000000000E+00   0.00000000000000E+00
      5.07557474834215E-17   3.20267740164135E-34   5.07557474834215E-17  -9.82018543834650E-18   7.38785386277483E-03
      7.38785358711640E-03   0.00000000000000E+00   0.00000000000000E+00   1.10190285516223E-09  -1.92776943055008E-34
      1.10190285516223E-09   3.36606421449281E-18
      1.57757077255497E-01
      0.00000000000000E+00   2.81370487953289E-10   0.00000000000000E+00   0.00000000000000E+00  -1.15603063354507E-09
     -1.23263982912793E-34  -1.15603063354507E-09   3.98204481604185E-18   0.00000000000000E+00   0.00000000000000E+00
      0.00000000000000E+00   0.00000000000000E+00   0.00000000000000E+00   0.00000000000000E+00   0.00000000000000E+00
      2.46701924564474E-18   0.00000000000000E+00   0.00000000000000E+00   0.00000000000000E+00   0.00000000000000E+00
      4.98805545388502E-17   2.97529839062452E-34   4.98805545388502E-17  -9.82002831593762E-18   7.88785386277484E-03
      7.88785357357010E-03   0.00000000000000E+00   0.00000000000000E+00   1.15603058366451E-09  -1.74265856149659E-34
      1.15603058366451E-09   3.37096425425104E-18
      1.67757077255497E-01
      0.00000000000000E+00   2.94025950468019E-10   0.00000000000000E+00   0.00000000000000E+00  -1.20800308842239E-09
     -1.09215744900499E-34  -1.20800308842239E-09   3.98188874724351E-18   0.00000000000000E+00   0.00000000000000E+00
      0.00000000000000E+00   0.00000000000000E+00   0.00000000000000E+00   0.00000000000000E+00   0.00000000000000E+00
      2.46211887212152E-18   0.00000000000000E+00   0.00000000000000E+00   0.00000000000000E+00   0.00000000000000E+00
      4.90875715905312E-17   2.72402129644713E-34   4.90875715905312E-17  -9.81987283673049E-18   8.38785386277484E-03
      8.38785356056267E-03   0.00000000000000E+00   0.00000000000000E+00   1.20800303933482E-09  -1.63186384744214E-34
      1.20800303933482E-09   3.37586521736545E-18
      1.77757077255497E-01
      0.00000000000000E+00   3.06175193179635E-10   0.00000000000000E+00   0.00000000000000E+00  -1.25789458451849E-09
     -1.22877502587584E-34  -1.25789458451849E-09   3.98173269887869E-18   0.00000000000000E+00   0.00000000000000E+00
      0.00000000000000E+00   0.00000000000000E+00   0.00000000000000E+00   0.00000000000000E+00   0.00000000000000E+00
      2.45721919211873E-18   0.00000000000000E+00   0.00000000000000E+00   0.00000000000000E+00   0.00000000000000E+00
      4.82488368685957E-17   3.05132801547462E-34   4.82488368685957E-17  -9.81971898958748E-18   8.88785386277484E-03
      8.88785354807562E-03   0.00000000000000E+00   0.00000000000000E+00   1.25789453626965E-09  -1.82255298959878E-34
      1.25789453626965E-09   3.38076709859007E-18
      1.87757077255497E-01
      0.00000000000000E+00   3.17835823559210E-10   0.00000000000000E+00   0.00000000000000E+00  -1.30577773933676E-09
     -1.29937929568038E-34  -1.30577773933676E-09   3.98157667074037E-18   0.00000000000000E+00   0.00000000000000E+00
      0.00000000000000E+00   0.00000000000000E+00   0.00000000000000E+00   0.00000000000000E+00   0.00000000000000E+00
      2.45232019995910E-18   0.00000000000000E+00   0.00000000000000E+00   0.00000000000000E+00   0.00000000000000E+00
      4.75305718915957E-17   2.94571223285639E-34   4.75305718915957E-17  -9.81956676338611E-18   9.38785386277484E-03
      9.38785353609082E-03   0.00000000000000E+00   0.00000000000000E+00   1.30577769180618E-09  -1.64633293717601E-34
      1.30577769180618E-09   3.38566989268665E-18
      1.97757077255497E-01
      0.00000000000000E+00   3.29025024087174E-10   0.00000000000000E+00   0.00000000000000E+00  -1.35172336429097E-09