DF-ISE text

Info {
  version   = 1.0
  type      = xyplot
  datasets  = [
    "time"
    "source OuterVoltage" "source InnerVoltage" "source QuasiFermiPotential" "source DisplacementCurrent" "source eCurrent"
    "source hCurrent" "source TotalCurrent" "source Charge" "gate OuterVoltage" "gate InnerVoltage"
    "gate QuasiFermiPotential" "gate DisplacementCurrent" "gate eCurrent" "gate hCurrent" "gate TotalCurrent"
    "gate Charge" "substrate OuterVoltage" "substrate InnerVoltage" "substrate QuasiFermiPotential" "substrate DisplacementCurrent"
    "substrate eCurrent" "substrate hCurrent" "substrate TotalCurrent" "substrate Charge" "drain OuterVoltage"
    "drain InnerVoltage" "drain QuasiFermiPotential" "drain DisplacementCurrent" "drain eCurrent" "drain hCurrent"
    "drain TotalCurrent" "drain Charge" ]
  functions = [
    Time
    OuterVoltage InnerVoltage QuasiFermiPotential DisplacementCurrent eCurrent
    hCurrent TotalCurrent Charge OuterVoltage InnerVoltage
    QuasiFermiPotential DisplacementCurrent eCurrent hCurrent TotalCurrent
    Charge OuterVoltage InnerVoltage QuasiFermiPotential DisplacementCurrent
    eCurrent hCurrent TotalCurrent Charge OuterVoltage
    InnerVoltage QuasiFermiPotential DisplacementCurrent eCurrent hCurrent
    TotalCurrent Charge ]
}

Data {
      0.00000000000000E+00
      0.00000000000000E+00   0.00000000000000E+00   0.00000000000000E+00   0.00000000000000E+00   6.70384293861744E-22
      4.98406365447384E-34   6.70384293862242E-22   4.72121647041809E-18   0.00000000000000E+00   0.00000000000000E+00
      0.00000000000000E+00   0.00000000000000E+00   0.00000000000000E+00   0.00000000000000E+00   0.00000000000000E+00
      1.88515660416750E-18   0.00000000000000E+00   0.00000000000000E+00   0.00000000000000E+00   0.00000000000000E+00
     -1.83416556944838E-20  -9.48983009197316E-34  -1.83416556944848E-20  -1.10091898815187E-17   0.00000000000000E+00
      0.00000000000000E+00   0.00000000000000E+00   0.00000000000000E+00   1.76712714006221E-20   4.50576643749931E-34
      1.76712714006225E-20   4.40281680693313E-18
      0.00000000000000E+00
      0.00000000000000E+00   0.00000000000000E+00   0.00000000000000E+00   0.00000000000000E+00   2.37107518408609E-20
      4.80627856891068E-34   2.37107518408614E-20   4.71958282897723E-18   0.00000000000000E+00   0.00000000000000E+00
      0.00000000000000E+00   0.00000000000000E+00   0.00000000000000E+00   0.00000000000000E+00   0.00000000000000E+00
      1.88038395306254E-18   0.00000000000000E+00   0.00000000000000E+00   0.00000000000000E+00   0.00000000000000E+00
      1.21062730581340E-19  -9.36397464713077E-34   1.21062730581339E-19  -1.10014212717363E-17   0.00000000000000E+00
      0.00000000000000E+00   0.00000000000000E+00   0.00000000000000E+00  -1.44773482422200E-19   4.55769607822008E-34
     -1.44773482422200E-19   4.40145448969650E-18
      1.00000000000000E-03
      0.00000000000000E+00   5.21673581098110E-11   0.00000000000000E+00   0.00000000000000E+00  -2.49417753421417E-10
      4.93609227409120E-34  -2.49417753421417E-10   4.71911524070518E-18   0.00000000000000E+00   0.00000000000000E+00
      0.00000000000000E+00   0.00000000000000E+00   0.00000000000000E+00   0.00000000000000E+00   0.00000000000000E+00
      1.86935630090816E-18   0.00000000000000E+00   0.00000000000000E+00   0.00000000000000E+00   0.00000000000000E+00
      9.26532418579554E-20  -9.38455685026688E-34   9.26532418579545E-20  -1.10007680804073E-17   8.60000000000000E-04
      8.59999947692519E-04   0.00000000000000E+00   0.00000000000000E+00   2.49417753328764E-10   4.44846457617567E-34
      2.49417753328764E-10   4.41229653879392E-18
      2.08666666666667E-03
      0.00000000000000E+00   1.05264385148691E-10   0.00000000000000E+00   0.00000000000000E+00  -5.03263911538961E-10
      4.71051171541333E-34  -5.03263911538961E-10   4.71860725370645E-18   0.00000000000000E+00   0.00000000000000E+00
      0.00000000000000E+00   0.00000000000000E+00   0.00000000000000E+00   0.00000000000000E+00   0.00000000000000E+00
      1.85737565430391E-18   0.00000000000000E+00   0.00000000000000E+00   0.00000000000000E+00   0.00000000000000E+00
      1.96109329816808E-15  -8.93057303431842E-34   1.96109329816808E-15  -1.10000655625740E-17   1.79453333333333E-03
      1.79453322778645E-03   0.00000000000000E+00   0.00000000000000E+00   5.03261950445663E-10   4.22006131890508E-34
      5.03261950445663E-10   4.42408265456366E-18
      3.28200000000000E-03
      0.00000000000000E+00   1.59422313496898E-10   0.00000000000000E+00   0.00000000000000E+00  -7.62159337586437E-10
      4.91006947957284E-34  -7.62159337586437E-10   4.71804861787293E-18   0.00000000000000E+00   0.00000000000000E+00
      0.00000000000000E+00   0.00000000000000E+00   0.00000000000000E+00   0.00000000000000E+00   0.00000000000000E+00
      1.84420018903794E-18   0.00000000000000E+00   0.00000000000000E+00   0.00000000000000E+00   0.00000000000000E+00
     -7.72839077399990E-20  -8.91091873314640E-34  -7.72839077399999E-20  -1.09993014619364E-17   2.82252000000000E-03
      2.82251984015035E-03   0.00000000000000E+00   0.00000000000000E+00   7.62159337663722E-10   4.00084925357356E-34
      7.62159337663722E-10   4.43705265502555E-18
      4.58889777777778E-03
      0.00000000000000E+00   2.13784936265916E-10   0.00000000000000E+00   0.00000000000000E+00  -1.02200798956243E-09
      4.84417994915762E-34  -1.02200798956243E-09   4.71743802006220E-18   0.00000000000000E+00   0.00000000000000E+00
      0.00000000000000E+00   0.00000000000000E+00   0.00000000000000E+00   0.00000000000000E+00   0.00000000000000E+00
      1.82979884792588E-18   0.00000000000000E+00   0.00000000000000E+00   0.00000000000000E+00   0.00000000000000E+00
      5.08409609612875E-20  -8.71748604362132E-34   5.08409609612867E-20  -1.09984763186664E-17   3.94645208888889E-03
      3.94645187453139E-03   0.00000000000000E+00   0.00000000000000E+00   1.02200798951159E-09   3.87330609446369E-34
      1.02200798951159E-09   4.45123945067829E-18
      6.01777268148148E-03
      0.00000000000000E+00   2.67796624693812E-10   0.00000000000000E+00   0.00000000000000E+00  -1.28015233473709E-09
      4.95861329276739E-34  -1.28015233473709E-09   4.71677064174859E-18   0.00000000000000E+00   0.00000000000000E+00
      0.00000000000000E+00   0.00000000000000E+00   0.00000000000000E+00   0.00000000000000E+00   0.00000000000000E+00
      1.81405789130369E-18   0.00000000000000E+00   0.00000000000000E+00   0.00000000000000E+00   0.00000000000000E+00
     -8.87274915764829E-20  -8.57177321595796E-34  -8.87274915764837E-20  -1.09975862886080E-17   5.17528450607408E-03
      5.17528423756075E-03   0.00000000000000E+00   0.00000000000000E+00   1.28015233482582E-09   3.61315992319056E-34
      1.28015233482582E-09   4.46675775555574E-18
      7.58000924286420E-03
      0.00000000000000E+00   3.20870335818716E-10   0.00000000000000E+00   0.00000000000000E+00  -1.53378728775649E-09
      4.87090319482087E-34  -1.53378728775649E-09   4.71604121950887E-18   0.00000000000000E+00   0.00000000000000E+00
      0.00000000000000E+00   0.00000000000000E+00   0.00000000000000E+00   0.00000000000000E+00   0.00000000000000E+00
      1.79685307500929E-18   0.00000000000000E+00   0.00000000000000E+00   0.00000000000000E+00   0.00000000000000E+00
     -3.00444668542668E-19  -8.45355613452541E-34  -3.00444668542669E-19  -1.09966274868835E-17   6.51880794886321E-03
      6.51880762713474E-03   0.00000000000000E+00   0.00000000000000E+00   1.53378728805693E-09   3.58265293970455E-34
      1.53378728805693E-09   4.48373319236529E-18
      9.28805454997597E-03
      0.00000000000000E+00   3.72398815336890E-10   0.00000000000000E+00   0.00000000000000E+00  -1.78001384910555E-09
      4.96595755223936E-34  -1.78001384910555E-09   4.71524400409560E-18   0.00000000000000E+00   0.00000000000000E+00
      0.00000000000000E+00   0.00000000000000E+00   0.00000000000000E+00   0.00000000000000E+00   0.00000000000000E+00
      1.77804868490695E-18   0.00000000000000E+00   0.00000000000000E+00   0.00000000000000E+00   0.00000000000000E+00
      3.88536472169767E-20  -8.34624851702695E-34   3.88536472169758E-20  -1.09955960324905E-17   7.98772691297934E-03
      7.98772653958521E-03   0.00000000000000E+00   0.00000000000000E+00   1.78001384906670E-09   3.38029096478759E-34
      1.78001384906670E-09   4.50230334348803E-18
      1.11555174190848E-02
      0.00000000000000E+00   4.21771605928129E-10   0.00000000000000E+00   0.00000000000000E+00  -2.01592082302998E-09
      4.79982121632380E-34  -2.01592082302998E-09   4.71437271573247E-18   0.00000000000000E+00   0.00000000000000E+00
      0.00000000000000E+00   0.00000000000000E+00   0.00000000000000E+00   0.00000000000000E+00   0.00000000000000E+00
      1.75749648368023E-18   0.00000000000000E+00   0.00000000000000E+00   0.00000000000000E+00   0.00000000000000E+00
     -1.28782114740927E-19  -7.99706626655608E-34  -1.28782114740928E-19  -1.09944881044236E-17   9.59374498041296E-03
      9.59374455751472E-03   0.00000000000000E+00   0.00000000000000E+00   2.01592082315876E-09   3.19724505023227E-34
      2.01592082315876E-09   4.52261890501083E-18
      1.31972768226439E-02
      0.00000000000000E+00   4.68397800002011E-10   0.00000000000000E+00   0.00000000000000E+00  -2.23869439733901E-09
      4.66066680321850E-34  -2.23869439733901E-09   4.71342049522880E-18   0.00000000000000E+00   0.00000000000000E+00
      0.00000000000000E+00   0.00000000000000E+00   0.00000000000000E+00   0.00000000000000E+00   0.00000000000000E+00
      1.73503456039832E-18   0.00000000000000E+00   0.00000000000000E+00   0.00000000000000E+00   0.00000000000000E+00
     -1.90918169694626E-19  -7.68181962575176E-34  -1.90918169694627E-19  -1.09933000092330E-17   1.13496580674737E-02
      1.13496575978254E-02   0.00000000000000E+00   0.00000000000000E+00   2.23869439752993E-09   3.02115282253326E-34
      2.23869439752993E-09   4.54484495360582E-18
      1.54296004372017E-02
      0.00000000000000E+00   5.11733880752575E-10   0.00000000000000E+00   0.00000000000000E+00  -2.44575093537315E-09
      4.62053271992611E-34  -2.44575093537315E-09   4.71237985054390E-18   0.00000000000000E+00   0.00000000000000E+00
      0.00000000000000E+00   0.00000000000000E+00   0.00000000000000E+00   0.00000000000000E+00   0.00000000000000E+00
      1.71048607387326E-18   0.00000000000000E+00   0.00000000000000E+00   0.00000000000000E+00   0.00000000000000E+00
     -1.14711041847942E-19  -7.53826278488220E-34  -1.14711041847943E-19  -1.09920282619577E-17   1.32694563759935E-02
      1.32694558628941E-02   0.00000000000000E+00   0.00000000000000E+00   2.44575093548787E-09   2.91773006495609E-34
      2.44575093548787E-09   4.56916233754053E-18
      1.78702742557850E-02
      0.00000000000000E+00   5.51315899714519E-10   0.00000000000000E+00   0.00000000000000E+00  -2.63489123174985E-09
      4.76149726916259E-34  -2.63489123174985E-09   4.71124259825055E-18   0.00000000000000E+00   0.00000000000000E+00
      0.00000000000000E+00   0.00000000000000E+00   0.00000000000000E+00   0.00000000000000E+00   0.00000000000000E+00
      1.68365787843159E-18   0.00000000000000E+00   0.00000000000000E+00   0.00000000000000E+00   0.00000000000000E+00
     -8.25713741283121E-20  -7.36096426285862E-34  -8.25713741283129E-20  -1.09906696795809E-17   1.53684358599751E-02
      1.53684353071888E-02   0.00000000000000E+00   0.00000000000000E+00   2.63489123183242E-09   2.59946699369602E-34
      2.63489123183242E-09   4.59576920289876E-18
      2.05387442974361E-02
      0.00000000000000E+00   5.86794494356654E-10   0.00000000000000E+00   0.00000000000000E+00  -2.80446822771184E-09
      4.72592384633917E-34  -2.80446822771184E-09   4.70999979944370E-18   0.00000000000000E+00   0.00000000000000E+00
      0.00000000000000E+00   0.00000000000000E+00   0.00000000000000E+00   0.00000000000000E+00   0.00000000000000E+00
      1.65433902162706E-18   0.00000000000000E+00   0.00000000000000E+00   0.00000000000000E+00   0.00000000000000E+00
      3.76608488995624E-20  -7.15427340081521E-34   3.76608488995617E-20  -1.09892214897122E-17   1.76633200957950E-02
      1.76633195074363E-02   0.00000000000000E+00   0.00000000000000E+00   2.80446822767418E-09   2.42834955447602E-34
      2.80446822767418E-09   4.62488266864137E-18
      2.34562715429746E-02
      0.00000000000000E+00   6.17971561080509E-10   0.00000000000000E+00   0.00000000000000E+00  -2.95356159175125E-09
      4.76119828133929E-34  -2.95356159175125E-09   4.70864168959425E-18   0.00000000000000E+00   0.00000000000000E+00
      0.00000000000000E+00   0.00000000000000E+00   0.00000000000000E+00   0.00000000000000E+00   0.00000000000000E+00
      1.62229910149536E-18   0.00000000000000E+00   0.00000000000000E+00   0.00000000000000E+00   0.00000000000000E+00
     -3.66365615328049E-19  -6.97316404191805E-34  -3.66365615328050E-19  -1.09876814564754E-17   2.01723935269581E-02
      2.01723929073406E-02   0.00000000000000E+00   0.00000000000000E+00   2.95356159211762E-09   2.21196576057875E-34
      2.95356159211762E-09   4.65674066538580E-18
      2.66461013314300E-02
      0.00000000000000E+00   6.44835820582398E-10   0.00000000000000E+00   0.00000000000000E+00  -3.08214750941433E-09
      4.90162686766860E-34  -3.08214750941433E-09   4.70715760152528E-18   0.00000000000000E+00   0.00000000000000E+00
      0.00000000000000E+00   0.00000000000000E+00   0.00000000000000E+00   0.00000000000000E+00   0.00000000000000E+00
      1.58728646606812E-18   0.00000000000000E+00   0.00000000000000E+00   0.00000000000000E+00   0.00000000000000E+00
     -9.59695068750151E-20  -6.86856861255963E-34  -9.59695068750157E-20  -1.09860480186253E-17   2.29156471450298E-02
      2.29156464984786E-02   0.00000000000000E+00   0.00000000000000E+00   3.08214750951030E-09   1.96694174489103E-34
      3.08214750951030E-09   4.69160395103186E-18
      3.01336485668079E-02
      0.00000000000000E+00   6.67592453455275E-10   0.00000000000000E+00   0.00000000000000E+00  -3.19123918796747E-09
      4.76127039281984E-34  -3.19123918796747E-09   4.70553588096383E-18   0.00000000000000E+00   0.00000000000000E+00
      0.00000000000000E+00   0.00000000000000E+00   0.00000000000000E+00   0.00000000000000E+00   0.00000000000000E+00
      1.54902624098057E-18   0.00000000000000E+00   0.00000000000000E+00   0.00000000000000E+00   0.00000000000000E+00
     -7.59390354190347E-20  -6.54274233619647E-34  -7.59390354190353E-20  -1.09843204432792E-17   2.59149377674548E-02
      2.59149370980902E-02   0.00000000000000E+00   0.00000000000000E+00   3.19123918804341E-09   1.78147194337662E-34
      3.19123918804341E-09   4.72975832133476E-18
      3.39467002108211E-02
      0.00000000000000E+00   6.86680797624650E-10   0.00000000000000E+00   0.00000000000000E+00  -3.28296952793731E-09
      4.81399236026989E-34  -3.28296952793731E-09   4.70376379387399E-18   0.00000000000000E+00   0.00000000000000E+00
      0.00000000000000E+00   0.00000000000000E+00   0.00000000000000E+00   0.00000000000000E+00   0.00000000000000E+00
      1.50721816530542E-18   0.00000000000000E+00   0.00000000000000E+00   0.00000000000000E+00   0.00000000000000E+00
     -6.31227921300954E-19  -6.35133130585848E-34  -6.31227921300954E-19  -1.09824989913002E-17   2.91941621813061E-02
      2.91941614928090E-02   0.00000000000000E+00   0.00000000000000E+00   3.28296952856853E-09   1.53733894558859E-34
      3.28296952856853E-09   4.77151703212073E-18
      3.81156366749421E-02
      0.00000000000000E+00   7.02772899731601E-10   0.00000000000000E+00   0.00000000000000E+00  -3.36058227089936E-09
      4.97017161294100E-34  -3.36058227089936E-09   4.70182742474526E-18   0.00000000000000E+00   0.00000000000000E+00
      0.00000000000000E+00   0.00000000000000E+00   0.00000000000000E+00   0.00000000000000E+00   0.00000000000000E+00
      1.46153421509395E-18   0.00000000000000E+00   0.00000000000000E+00   0.00000000000000E+00   0.00000000000000E+00
      6.63723033852117E-19  -6.39224800315282E-34   6.63723033852116E-19  -1.09805850913114E-17   3.27794475404502E-02
      3.27794468358293E-02   0.00000000000000E+00   0.00000000000000E+00   3.36058227023564E-09   1.42207639021182E-34
      3.36058227023564E-09   4.81722345147224E-18
      4.26736738757145E-02
      0.00000000000000E+00   7.16746279043421E-10   0.00000000000000E+00   0.00000000000000E+00  -3.42830109967918E-09
      4.88686300134363E-34  -3.42830109967918E-09   4.69971156559622E-18   0.00000000000000E+00   0.00000000000000E+00
      0.00000000000000E+00   0.00000000000000E+00   0.00000000000000E+00   0.00000000000000E+00   0.00000000000000E+00
      1.41161599625972E-18   0.00000000000000E+00   0.00000000000000E+00   0.00000000000000E+00   0.00000000000000E+00
      2.72438967820143E-18  -6.11682014929690E-34   2.72438967820143E-18  -1.09785815245190E-17   3.66993595331145E-02
      3.66993588145007E-02   0.00000000000000E+00   0.00000000000000E+00   3.42830109695480E-09   1.22995714795326E-34
      3.42830109695480E-09   4.86725396266309E-18
      4.76571278818923E-02
      0.00000000000000E+00   7.29614731518620E-10   0.00000000000000E+00   0.00000000000000E+00  -3.49100082455247E-09
      4.80960815255134E-34  -3.49100082455247E-09   4.69739959607408E-18   0.00000000000000E+00   0.00000000000000E+00
      0.00000000000000E+00   0.00000000000000E+00   0.00000000000000E+00   0.00000000000000E+00   0.00000000000000E+00
      1.35707189341673E-18   0.00000000000000E+00   0.00000000000000E+00   0.00000000000000E+00   0.00000000000000E+00
      3.85951964272465E-18  -5.82317464038346E-34   3.85951964272465E-18  -1.09764926293230E-17   4.09851299784274E-02
      4.09851292469379E-02   0.00000000000000E+00   0.00000000000000E+00   3.49100082069295E-09   1.01356648783212E-34
      3.49100082069295E-09   4.92202113983216E-18
      5.31057042619801E-02
      0.00000000000000E+00   7.42390471956308E-10   0.00000000000000E+00   0.00000000000000E+00  -3.55354177119009E-09
      4.65986562115419E-34  -3.55354177119009E-09   4.69487335484868E-18   0.00000000000000E+00   0.00000000000000E+00
      0.00000000000000E+00   0.00000000000000E+00   0.00000000000000E+00   0.00000000000000E+00   0.00000000000000E+00
      1.29747395247307E-18   0.00000000000000E+00   0.00000000000000E+00   0.00000000000000E+00   0.00000000000000E+00
      1.84194712585250E-18  -5.53749194931602E-34   1.84194712585250E-18  -1.09743245245280E-17   4.56709056653029E-02
      4.56709049210424E-02   0.00000000000000E+00   0.00000000000000E+00   3.55354176934815E-09   8.77626328161822E-35
      3.55354176934815E-09   4.98197721720627E-18
      5.90628144375427E-02
      0.00000000000000E+00   7.55912149501077E-10   0.00000000000000E+00   0.00000000000000E+00  -3.61992701515341E-09
      4.69053407551773E-34  -3.61992701515341E-09   4.69211299971286E-18   0.00000000000000E+00   0.00000000000000E+00
      0.00000000000000E+00   0.00000000000000E+00   0.00000000000000E+00   0.00000000000000E+00   0.00000000000000E+00
      1.23235448448337E-18   0.00000000000000E+00   0.00000000000000E+00   0.00000000000000E+00   0.00000000000000E+00
      7.21255107196913E-20  -5.44878774107347E-34   7.21255107196907E-20  -1.09720853619045E-17   5.07940204162867E-02
      5.07940196585221E-02   0.00000000000000E+00   0.00000000000000E+00   3.61992701508129E-09   7.58253665555745E-35
      3.61992701508129E-09   5.04761787770824E-18
      6.55362074949873E-02
      0.00000000000000E+00   7.70693968738506E-10   0.00000000000000E+00   0.00000000000000E+00  -3.69258652605781E-09
      4.81092799427710E-34  -3.69258652605781E-09   4.68911523713857E-18   0.00000000000000E+00   0.00000000000000E+00
      0.00000000000000E+00   0.00000000000000E+00   0.00000000000000E+00   0.00000000000000E+00   0.00000000000000E+00
      1.16163604928352E-18   0.00000000000000E+00   0.00000000000000E+00   0.00000000000000E+00   0.00000000000000E+00
     -6.92832277152033E-20  -5.43746782205150E-34  -6.92832277152039E-20  -1.09697991368060E-17   5.63611384456891E-02
      5.63611376731714E-02   0.00000000000000E+00   0.00000000000000E+00   3.69258652612709E-09   6.26539827774403E-35
      3.69258652612709E-09   5.11904785038398E-18
      7.25706279507439E-02
      0.00000000000000E+00   7.87153769325977E-10   0.00000000000000E+00   0.00000000000000E+00  -3.77353474384007E-09
      4.98355922811572E-34  -3.77353474384007E-09   4.68585965688228E-18   0.00000000000000E+00   0.00000000000000E+00
      0.00000000000000E+00   0.00000000000000E+00   0.00000000000000E+00   0.00000000000000E+00   0.00000000000000E+00
      1.08483721671415E-18   0.00000000000000E+00   0.00000000000000E+00   0.00000000000000E+00   0.00000000000000E+00
     -1.26689674534524E-19  -5.47104026766263E-34  -1.26689674534524E-19  -1.09674783653817E-17   6.24107400376398E-02
      6.24107392487055E-02   0.00000000000000E+00   0.00000000000000E+00   3.77353474396675E-09   4.87481039546910E-35
      3.77353474396675E-09   5.19678149178529E-18
      8.02146981793327E-02
      0.00000000000000E+00   8.05541162710512E-10   0.00000000000000E+00   0.00000000000000E+00  -3.86400663313630E-09
      4.68342786331417E-34  -3.86400663313630E-09   4.68232411049072E-18   0.00000000000000E+00   0.00000000000000E+00
      0.00000000000000E+00   0.00000000000000E+00   0.00000000000000E+00   0.00000000000000E+00   0.00000000000000E+00
      1.00143511427876E-18   0.00000000000000E+00   0.00000000000000E+00   0.00000000000000E+00   0.00000000000000E+00
     -2.05626057388967E-19  -5.06028828993372E-34  -2.05626057388967E-19  -1.09651381174830E-17   6.89846404342261E-02
      6.89846396269640E-02   0.00000000000000E+00   0.00000000000000E+00   3.86400663334193E-09   3.76860426619543E-35
      3.86400663334193E-09   5.28137889271350E-18
      8.85212544943992E-02
      0.00000000000000E+00   8.25936164907116E-10   0.00000000000000E+00   0.00000000000000E+00  -3.96440433293457E-09
      4.52181878304722E-34  -3.96440433293457E-09   4.67848457265017E-18   0.00000000000000E+00   0.00000000000000E+00
      0.00000000000000E+00   0.00000000000000E+00   0.00000000000000E+00   0.00000000000000E+00   0.00000000000000E+00
      9.10861916314386E-19   0.00000000000000E+00   0.00000000000000E+00   0.00000000000000E+00   0.00000000000000E+00
     -2.53509233632689E-19  -4.83087047134676E-34  -2.53509233632690E-19  -1.09627963452621E-17   7.61282788651833E-02
      7.61282780375940E-02   0.00000000000000E+00   0.00000000000000E+00   3.96440433318808E-09   3.09051688299537E-35
      3.96440433318808E-09   5.37344985629754E-18
      9.75477123567714E-02
      0.00000000000000E+00   8.48416692151113E-10   0.00000000000000E+00   0.00000000000000E+00  -4.07513385174619E-09
      4.90935643692368E-34  -4.07513385174619E-09   4.67431496556227E-18   0.00000000000000E+00   0.00000000000000E+00
      0.00000000000000E+00   0.00000000000000E+00   0.00000000000000E+00   0.00000000000000E+00   0.00000000000000E+00
      8.12500894238083E-19   0.00000000000000E+00   0.00000000000000E+00   0.00000000000000E+00   0.00000000000000E+00
     -2.82442834700088E-19  -5.13684699326748E-34  -2.82442834700089E-19  -1.09604740379498E-17   8.38910326268234E-02
      8.38910317768252E-02   0.00000000000000E+00   0.00000000000000E+00   4.07513385202863E-09   2.27490556343802E-35
      4.07513385202863E-09   5.47365817814944E-18
      1.07356463233883E-01
      0.00000000000000E+00   8.73208672596601E-10   0.00000000000000E+00   0.00000000000000E+00  -4.19734963726415E-09
      4.50759924714314E-34  -4.19734963726415E-09   4.66978696387671E-18   0.00000000000000E+00   0.00000000000000E+00
      0.00000000000000E+00   0.00000000000000E+00   0.00000000000000E+00   0.00000000000000E+00   0.00000000000000E+00
      7.05682039853538E-19   0.00000000000000E+00   0.00000000000000E+00   0.00000000000000E+00   0.00000000000000E+00
     -3.49843035954980E-19  -4.67662396965482E-34  -3.49843035954980E-19  -1.09581952756112E-17   9.23265583811390E-02
      9.23265575064337E-02   0.00000000000000E+00   0.00000000000000E+00   4.19734963761400E-09   1.69024722511677E-35
      4.19734963761400E-09   5.58272627188097E-18
      1.17356463233883E-01
      0.00000000000000E+00   8.98961930859938E-10   0.00000000000000E+00   0.00000000000000E+00  -4.32442213616493E-09
      4.55646873744779E-34  -4.32442213616493E-09   4.66517365366964E-18   0.00000000000000E+00   0.00000000000000E+00
      0.00000000000000E+00   0.00000000000000E+00   0.00000000000000E+00   0.00000000000000E+00   0.00000000000000E+00
      5.96845875640132E-19   0.00000000000000E+00   0.00000000000000E+00   0.00000000000000E+00   0.00000000000000E+00
     -1.71024848569661E-19  -4.68365003482381E-34  -1.71024848569661E-19  -1.09561162044600E-17   1.00926558381139E-01
      1.00926557480786E-01   0.00000000000000E+00   0.00000000000000E+00   4.32442213633595E-09   1.27181297376029E-35
      4.32442213633595E-09   5.69409667515031E-18
      1.27356463233883E-01
      0.00000000000000E+00   9.25289162084068E-10   0.00000000000000E+00   0.00000000000000E+00  -4.45444106392387E-09
      4.72725150404619E-34  -4.45444106392387E-09   4.66056317700124E-18   0.00000000000000E+00   0.00000000000000E+00
      0.00000000000000E+00   0.00000000000000E+00   0.00000000000000E+00   0.00000000000000E+00   0.00000000000000E+00
      4.88070279503458E-19   0.00000000000000E+00   0.00000000000000E+00   0.00000000000000E+00   0.00000000000000E+00
     -1.54504933902906E-19  -4.82043894777454E-34  -1.54504933902906E-19  -1.09542664593619E-17   1.09526558381139E-01
      1.09526557454579E-01   0.00000000000000E+00   0.00000000000000E+00   4.45444106407838E-09   9.31874437283536E-36
      4.45444106407838E-09   5.80563300285720E-18
      1.37356463233883E-01
      0.00000000000000E+00   9.52253602195511E-10   0.00000000000000E+00   0.00000000000000E+00  -4.58771526300841E-09
      4.63073874451392E-34  -4.58771526300841E-09   4.65595539025329E-18   0.00000000000000E+00   0.00000000000000E+00
      0.00000000000000E+00   0.00000000000000E+00   0.00000000000000E+00   0.00000000000000E+00   0.00000000000000E+00
      3.79350519449671E-19   0.00000000000000E+00   0.00000000000000E+00   0.00000000000000E+00   0.00000000000000E+00
     -1.51307377410894E-19  -4.70101912905138E-34  -1.51307377410895E-19  -1.09526305060614E-17   1.18126558381139E-01
      1.18126557427740E-01   0.00000000000000E+00   0.00000000000000E+00   4.58771526315972E-09   7.02803845374595E-36
      4.58771526315972E-09   5.91732459635842E-18
      1.47356463233883E-01
      0.00000000000000E+00   9.79885996082555E-10   0.00000000000000E+00   0.00000000000000E+00  -4.72439416905071E-09
      4.70910619701107E-34  -4.72439416905071E-09   4.65135016511650E-18   0.00000000000000E+00   0.00000000000000E+00
      0.00000000000000E+00   0.00000000000000E+00   0.00000000000000E+00   0.00000000000000E+00   0.00000000000000E+00
      2.70682478711626E-19   0.00000000000000E+00   0.00000000000000E+00   0.00000000000000E+00   0.00000000000000E+00
     -1.48760009482955E-19  -4.75911756231894E-34  -1.48760009482955E-19  -1.09511942451219E-17   1.26726558381139E-01
      1.26726557400231E-01   0.00000000000000E+00   0.00000000000000E+00   4.72439416919947E-09   5.00113653078760E-36
      4.72439416919947E-09   6.02916160129379E-18
      1.57356463233883E-01
      0.00000000000000E+00   1.00819263318481E-09   0.00000000000000E+00   0.00000000000000E+00  -4.86450883274485E-09
      4.72077508889399E-34  -4.86450883274485E-09   4.64674738454125E-18   0.00000000000000E+00   0.00000000000000E+00
      0.00000000000000E+00   0.00000000000000E+00   0.00000000000000E+00   0.00000000000000E+00   0.00000000000000E+00
      1.62062521869273E-19   0.00000000000000E+00   0.00000000000000E+00   0.00000000000000E+00   0.00000000000000E+00
     -3.53476296486917E-20  -4.75827963331314E-34  -3.53476296486921E-20  -1.09499447906121E-17   1.35326558381139E-01
      1.35326557372046E-01   0.00000000000000E+00   0.00000000000000E+00   4.86450883278020E-09   3.75045444191498E-36
      4.86450883278020E-09   6.14113488420157E-18
      1.67356463233883E-01
      0.00000000000000E+00   1.03716852363820E-09   0.00000000000000E+00   0.00000000000000E+00  -5.00803503369695E-09
      4.61685260491597E-34  -5.00803503369695E-09   4.64214694104378E-18   0.00000000000000E+00   0.00000000000000E+00
      0.00000000000000E+00   0.00000000000000E+00   0.00000000000000E+00   0.00000000000000E+00   0.00000000000000E+00
      5.34874020899016E-20   0.00000000000000E+00   0.00000000000000E+00   0.00000000000000E+00   0.00000000000000E+00
     -1.11714173617637E-19  -4.64427240321999E-34  -1.11714173617637E-19  -1.09488703045880E-17   1.43926558381139E-01
      1.43926557343192E-01   0.00000000000000E+00   0.00000000000000E+00   5.00803503380867E-09   2.74197983040176E-36
      5.00803503380867E-09   6.25323596145426E-18
      1.77356463233883E-01
      0.00000000000000E+00   1.06680794337072E-09   0.00000000000000E+00   0.00000000000000E+00  -5.15494682208558E-09
      4.77710420914567E-34  -5.15494682208558E-09   4.63754873751283E-18   0.00000000000000E+00   0.00000000000000E+00
      0.00000000000000E+00   0.00000000000000E+00   0.00000000000000E+00   0.00000000000000E+00   0.00000000000000E+00
     -5.50457589775444E-20   0.00000000000000E+00   0.00000000000000E+00   0.00000000000000E+00   0.00000000000000E+00
      3.36141628441689E-20  -4.79829125756094E-34   3.36141628441684E-20  -1.09479599265319E-17   1.52526558381139E-01
      1.52526557313678E-01   0.00000000000000E+00   0.00000000000000E+00   5.15494682205197E-09   2.11870484152587E-36
      5.15494682205197E-09   6.36545694799660E-18
      1.87356463233883E-01
      0.00000000000000E+00   1.09710998383442E-09   0.00000000000000E+00   0.00000000000000E+00  -5.30524426552377E-09