DF-ISE text

Info {
  version   = 1.0
  type      = xyplot
  datasets  = [
    "time"
    "source OuterVoltage" "source InnerVoltage" "source QuasiFermiPotential" "source DisplacementCurrent" "source eCurrent"
    "source hCurrent" "source TotalCurrent" "source Charge" "gate OuterVoltage" "gate InnerVoltage"
    "gate QuasiFermiPotential" "gate DisplacementCurrent" "gate eCurrent" "gate hCurrent" "gate TotalCurrent"
    "gate Charge" "substrate OuterVoltage" "substrate InnerVoltage" "substrate QuasiFermiPotential" "substrate DisplacementCurrent"
    "substrate eCurrent" "substrate hCurrent" "substrate TotalCurrent" "substrate Charge" "drain OuterVoltage"
    "drain InnerVoltage" "drain QuasiFermiPotential" "drain DisplacementCurrent" "drain eCurrent" "drain hCurrent"
    "drain TotalCurrent" "drain Charge" ]
  functions = [
    Time
    OuterVoltage InnerVoltage QuasiFermiPotential DisplacementCurrent eCurrent
    hCurrent TotalCurrent Charge OuterVoltage InnerVoltage
    QuasiFermiPotential DisplacementCurrent eCurrent hCurrent TotalCurrent
    Charge OuterVoltage InnerVoltage QuasiFermiPotential DisplacementCurrent
    eCurrent hCurrent TotalCurrent Charge OuterVoltage
    InnerVoltage QuasiFermiPotential DisplacementCurrent eCurrent hCurrent
    TotalCurrent Charge ]
}

Data {
      0.00000000000000E+00
      0.00000000000000E+00   0.00000000000000E+00   0.00000000000000E+00   0.00000000000000E+00  -6.99205595859817E-21
      4.58756261740829E-34  -6.99205595859771E-21   4.54850727724836E-18   0.00000000000000E+00   0.00000000000000E+00
      0.00000000000000E+00   0.00000000000000E+00   0.00000000000000E+00   0.00000000000000E+00   0.00000000000000E+00
      1.84471417632491E-18   0.00000000000000E+00   0.00000000000000E+00   0.00000000000000E+00   0.00000000000000E+00
      1.73874760690080E-20  -8.91873338590885E-34   1.73874760690071E-20  -1.06274476515811E-17   0.00000000000000E+00
      0.00000000000000E+00   0.00000000000000E+00   0.00000000000000E+00  -1.03954201104099E-20   4.33117076850055E-34
     -1.03954201104094E-20   4.23422619800776E-18
      0.00000000000000E+00
      0.00000000000000E+00   0.00000000000000E+00   0.00000000000000E+00   0.00000000000000E+00  -7.46075326391865E-20
      4.57604467913015E-34  -7.46075326391861E-20   4.54709548415515E-18   0.00000000000000E+00   0.00000000000000E+00
      0.00000000000000E+00   0.00000000000000E+00   0.00000000000000E+00   0.00000000000000E+00   0.00000000000000E+00
      1.84023458061558E-18   0.00000000000000E+00   0.00000000000000E+00   0.00000000000000E+00   0.00000000000000E+00
      2.33425107430066E-19  -8.90189465491910E-34   2.33425107430065E-19  -1.06203837387898E-17   0.00000000000000E+00
      0.00000000000000E+00   0.00000000000000E+00   0.00000000000000E+00  -1.58817574790879E-19   4.32584997578893E-34
     -1.58817574790879E-19   4.23305367401903E-18
      1.00000000000000E-03
      0.00000000000000E+00   5.52629024074307E-11   0.00000000000000E+00   0.00000000000000E+00  -2.57226463838424E-10
      4.69378932288966E-34  -2.57226463838424E-10   4.54667495817584E-18   0.00000000000000E+00   0.00000000000000E+00
      0.00000000000000E+00   0.00000000000000E+00   0.00000000000000E+00   0.00000000000000E+00   0.00000000000000E+00
      1.82929181037000E-18   0.00000000000000E+00   0.00000000000000E+00   0.00000000000000E+00   0.00000000000000E+00
     -3.44472289931750E-19  -8.71262074170969E-34  -3.44472289931751E-19  -1.06197120359828E-17   8.60000000000000E-04
      8.59999944627259E-04   0.00000000000000E+00   0.00000000000000E+00   2.57226464182896E-10   4.01883141882002E-34
      2.57226464182896E-10   4.24374526743692E-18
      2.08666666666667E-03
      0.00000000000000E+00   1.11508214109202E-10   0.00000000000000E+00   0.00000000000000E+00  -5.19010144732495E-10
      4.63712178687682E-34  -5.19010144732495E-10   4.54621810951848E-18   0.00000000000000E+00   0.00000000000000E+00
      0.00000000000000E+00   0.00000000000000E+00   0.00000000000000E+00   0.00000000000000E+00   0.00000000000000E+00
      1.81740346474559E-18   0.00000000000000E+00   0.00000000000000E+00   0.00000000000000E+00   0.00000000000000E+00
      2.04954255558915E-15  -8.61416372238744E-34   2.04954255558915E-15  -1.06189894840579E-17   1.79453333333333E-03
      1.79453322160377E-03   0.00000000000000E+00   0.00000000000000E+00   5.19008095189940E-10   3.97704193551060E-34
      5.19008095189940E-10   4.25536790979378E-18
      3.28200000000000E-03
      0.00000000000000E+00   1.68874501600505E-10   0.00000000000000E+00   0.00000000000000E+00  -7.85990001953342E-10
      4.69186193442244E-34  -7.85990001953342E-10   4.54571572265389E-18   0.00000000000000E+00   0.00000000000000E+00
      0.00000000000000E+00   0.00000000000000E+00   0.00000000000000E+00   0.00000000000000E+00   0.00000000000000E+00
      1.80432960477164E-18   0.00000000000000E+00   0.00000000000000E+00   0.00000000000000E+00   0.00000000000000E+00
     -3.46700271147070E-19  -8.68658721271091E-34  -3.46700271147071E-19  -1.06182034425124E-17   2.82252000000000E-03
      2.82251983079069E-03   0.00000000000000E+00   0.00000000000000E+00   7.85990002300042E-10   3.99472527828845E-34
      7.85990002300042E-10   4.26815811508686E-18
      4.58889777777778E-03
      0.00000000000000E+00   2.26454290687589E-10   0.00000000000000E+00   0.00000000000000E+00  -1.05393952578843E-09
      4.58379627926565E-34  -1.05393952578843E-09   4.54516661989137E-18   0.00000000000000E+00   0.00000000000000E+00
      0.00000000000000E+00   0.00000000000000E+00   0.00000000000000E+00   0.00000000000000E+00   0.00000000000000E+00
      1.79003943965115E-18   0.00000000000000E+00   0.00000000000000E+00   0.00000000000000E+00   0.00000000000000E+00
     -2.07770261792680E-20  -8.32238956948193E-34  -2.07770261792689E-20  -1.06173544241936E-17   3.94645208888889E-03
      3.94645186198610E-03   0.00000000000000E+00   0.00000000000000E+00   1.05393952580920E-09   3.73859329021627E-34
      1.05393952580920E-09   4.28214836465108E-18
      6.01777268148148E-03
      0.00000000000000E+00   2.83658257346391E-10   0.00000000000000E+00   0.00000000000000E+00  -1.32011470331694E-09
      4.70740230330138E-34  -1.32011470331694E-09   4.54456647160840E-18   0.00000000000000E+00   0.00000000000000E+00
      0.00000000000000E+00   0.00000000000000E+00   0.00000000000000E+00   0.00000000000000E+00   0.00000000000000E+00
      1.77442013826077E-18   0.00000000000000E+00   0.00000000000000E+00   0.00000000000000E+00   0.00000000000000E+00
     -4.58087723663391E-20  -8.28219231360567E-34  -4.58087723663399E-20  -1.06164384239030E-17   5.17528450607408E-03
      5.17528422185457E-03   0.00000000000000E+00   0.00000000000000E+00   1.32011470336275E-09   3.57479001030428E-34
      1.32011470336275E-09   4.29745181403388E-18
      7.58000924286420E-03
      0.00000000000000E+00   3.39863957320114E-10   0.00000000000000E+00   0.00000000000000E+00  -1.58161943795596E-09
      4.75498294600651E-34  -1.58161943795596E-09   4.54391054876262E-18   0.00000000000000E+00   0.00000000000000E+00
      0.00000000000000E+00   0.00000000000000E+00   0.00000000000000E+00   0.00000000000000E+00   0.00000000000000E+00
      1.75734845193078E-18   0.00000000000000E+00   0.00000000000000E+00   0.00000000000000E+00   0.00000000000000E+00
     -1.65610081396069E-19  -8.17445652467852E-34  -1.65610081396070E-19  -1.06154513832654E-17   6.51880794886321E-03
      6.51880760832745E-03   0.00000000000000E+00   0.00000000000000E+00   1.58161943812157E-09   3.41947357867200E-34
      1.58161943812157E-09   4.31419238257202E-18
      9.28805454997597E-03
      0.00000000000000E+00   3.94427377579228E-10   0.00000000000000E+00   0.00000000000000E+00  -1.83545982743289E-09
      4.67641304928017E-34  -1.83545982743289E-09   4.54319368619230E-18   0.00000000000000E+00   0.00000000000000E+00
      0.00000000000000E+00   0.00000000000000E+00   0.00000000000000E+00   0.00000000000000E+00   0.00000000000000E+00
      1.73868975764413E-18   0.00000000000000E+00   0.00000000000000E+00   0.00000000000000E+00   0.00000000000000E+00
     -8.77798087341146E-20  -7.92427468661906E-34  -8.77798087341154E-20  -1.06143892348973E-17   7.98772691297934E-03
      7.98772651777302E-03   0.00000000000000E+00   0.00000000000000E+00   1.83545982752067E-09   3.24786163733888E-34
      1.83545982752067E-09   4.33250579106085E-18
      1.11555174190848E-02
      0.00000000000000E+00   4.46700825068349E-10   0.00000000000000E+00   0.00000000000000E+00  -2.07862778538794E-09
      4.52940900903162E-34  -2.07862778538794E-09   4.54241024251343E-18   0.00000000000000E+00   0.00000000000000E+00
      0.00000000000000E+00   0.00000000000000E+00   0.00000000000000E+00   0.00000000000000E+00   0.00000000000000E+00
      1.71829701436791E-18   0.00000000000000E+00   0.00000000000000E+00   0.00000000000000E+00   0.00000000000000E+00
     -2.60984111356159E-19  -7.49723566220941E-34  -2.60984111356160E-19  -1.06132479580391E-17   9.59374498041296E-03
      9.59374453283068E-03   0.00000000000000E+00   0.00000000000000E+00   2.07862778564892E-09   2.96782665317778E-34
      2.07862778564892E-09   4.35254070115776E-18
      1.31972768226439E-02
      0.00000000000000E+00   4.96057251954959E-10   0.00000000000000E+00   0.00000000000000E+00  -2.30821453634500E-09
      4.63192335506334E-34  -2.30821453634500E-09   4.54155405625353E-18   0.00000000000000E+00   0.00000000000000E+00
      0.00000000000000E+00   0.00000000000000E+00   0.00000000000000E+00   0.00000000000000E+00   0.00000000000000E+00
      1.69600962259160E-18   0.00000000000000E+00   0.00000000000000E+00   0.00000000000000E+00   0.00000000000000E+00
      4.62687839260292E-20  -7.55450751572433E-34   4.62687839260285E-20  -1.06120236449560E-17   1.13496580674737E-02
      1.13496575704384E-02   0.00000000000000E+00   0.00000000000000E+00   2.30821453629873E-09   2.92258416066099E-34
      2.30821453629873E-09   4.37445996611091E-18
      1.54296004372017E-02
      0.00000000000000E+00   5.41920101200413E-10   0.00000000000000E+00   0.00000000000000E+00  -2.52154982099869E-09
      4.63607289093346E-34  -2.52154982099869E-09   4.54061839786947E-18   0.00000000000000E+00   0.00000000000000E+00
      0.00000000000000E+00   0.00000000000000E+00   0.00000000000000E+00   0.00000000000000E+00   0.00000000000000E+00
      1.67165217787719E-18   0.00000000000000E+00   0.00000000000000E+00   0.00000000000000E+00   0.00000000000000E+00
      7.95499596128763E-20  -7.34636413308814E-34   7.95499596128756E-20  -1.06107125795053E-17   1.32694563759935E-02
      1.32694558330058E-02   0.00000000000000E+00   0.00000000000000E+00   2.52154982091914E-09   2.71029124215467E-34
      2.52154982091914E-09   4.39844200375859E-18
      1.78702742557850E-02
      0.00000000000000E+00   5.83796620120161E-10   0.00000000000000E+00   0.00000000000000E+00  -2.71635709358586E-09
      4.63633941729490E-34  -2.71635709358586E-09   4.53959591723912E-18   0.00000000000000E+00   0.00000000000000E+00
      0.00000000000000E+00   0.00000000000000E+00   0.00000000000000E+00   0.00000000000000E+00   0.00000000000000E+00
      1.64503311003353E-18   0.00000000000000E+00   0.00000000000000E+00   0.00000000000000E+00   0.00000000000000E+00
      2.03200291467339E-19  -7.13144780914761E-34   2.03200291467338E-19  -1.06093113311911E-17   1.53684358599751E-02
      1.53684352750293E-02   0.00000000000000E+00   0.00000000000000E+00   2.71635709338266E-09   2.49510839185271E-34
      2.71635709338266E-09   4.42468230391846E-18
      2.05387442974361E-02
      0.00000000000000E+00   6.21315598365783E-10   0.00000000000000E+00   0.00000000000000E+00  -2.89092930226603E-09
      4.86657495134103E-34  -2.89092930226603E-09   4.53847858607659E-18   0.00000000000000E+00   0.00000000000000E+00
      0.00000000000000E+00   0.00000000000000E+00   0.00000000000000E+00   0.00000000000000E+00   0.00000000000000E+00
      1.61594319335740E-18   0.00000000000000E+00   0.00000000000000E+00   0.00000000000000E+00   0.00000000000000E+00
     -1.28654978937046E-19  -7.11732372190864E-34  -1.28654978937047E-19  -1.06078168616825E-17   1.76633200957950E-02
      1.76633194732574E-02   0.00000000000000E+00   0.00000000000000E+00   2.89092930239468E-09   2.25074877056760E-34
      2.89092930239468E-09   4.45339508224854E-18
      2.34562715429746E-02
      0.00000000000000E+00   6.54265959155946E-10   0.00000000000000E+00   0.00000000000000E+00  -3.04430819347296E-09
      4.31973245468648E-34  -3.04430819347296E-09   4.53725763487841E-18   0.00000000000000E+00   0.00000000000000E+00
      0.00000000000000E+00   0.00000000000000E+00   0.00000000000000E+00   0.00000000000000E+00   0.00000000000000E+00
      1.58415391782571E-18   0.00000000000000E+00   0.00000000000000E+00   0.00000000000000E+00   0.00000000000000E+00
      8.51920709296794E-20  -6.38433611665190E-34   8.51920709296787E-20  -1.06062266480547E-17   2.01723935269581E-02
      2.01723928714068E-02   0.00000000000000E+00   0.00000000000000E+00   3.04430819338776E-09   2.06460366196542E-34
      3.04430819338776E-09   4.48481509535061E-18
      2.66461013314300E-02
      0.00000000000000E+00   6.82634433193897E-10   0.00000000000000E+00   0.00000000000000E+00  -3.17645905432818E-09
      4.85402833130093E-34  -3.17645905432818E-09   4.53592348370694E-18   0.00000000000000E+00   0.00000000000000E+00
      0.00000000000000E+00   0.00000000000000E+00   0.00000000000000E+00   0.00000000000000E+00   0.00000000000000E+00
      1.54941570484163E-18   0.00000000000000E+00   0.00000000000000E+00   0.00000000000000E+00   0.00000000000000E+00
      2.86207720025704E-20  -6.83047431999183E-34   2.86207720025697E-20  -1.06045388200733E-17   2.29156471450298E-02
      2.29156464610565E-02   0.00000000000000E+00   0.00000000000000E+00   3.17645905429956E-09   1.97644598869089E-34
      3.17645905429956E-09   4.51919963152469E-18
      3.01336485668079E-02
      0.00000000000000E+00   7.06636955394009E-10   0.00000000000000E+00   0.00000000000000E+00  -3.28841605989572E-09
      4.45149010555813E-34  -3.28841605989572E-09   4.53446566618854E-18   0.00000000000000E+00   0.00000000000000E+00
      0.00000000000000E+00   0.00000000000000E+00   0.00000000000000E+00   0.00000000000000E+00   0.00000000000000E+00
      1.51145595093689E-18   0.00000000000000E+00   0.00000000000000E+00   0.00000000000000E+00   0.00000000000000E+00
     -2.11667242856845E-19  -6.14918983674343E-34  -2.11667242856845E-19  -1.06027523100634E-17   2.59149377674548E-02
      2.59149370594357E-02   0.00000000000000E+00   0.00000000000000E+00   3.28841606010739E-09   1.69769973118530E-34
      3.28841606010739E-09   4.55683069293799E-18
      3.39467002108211E-02
      0.00000000000000E+00   7.26736942551433E-10   0.00000000000000E+00   0.00000000000000E+00  -3.38236572748079E-09
      4.68815428992945E-34  -3.38236572748079E-09   4.53287274607097E-18   0.00000000000000E+00   0.00000000000000E+00
      0.00000000000000E+00   0.00000000000000E+00   0.00000000000000E+00   0.00000000000000E+00   0.00000000000000E+00
      1.46997688210117E-18   0.00000000000000E+00   0.00000000000000E+00   0.00000000000000E+00   0.00000000000000E+00
     -2.91826718989067E-19  -6.24931294650449E-34  -2.91826718989068E-19  -1.06008670150598E-17   2.91941621813061E-02
      2.91941614531541E-02   0.00000000000000E+00   0.00000000000000E+00   3.38236572777262E-09   1.56115865657503E-34
      3.38236572777262E-09   4.59801738688767E-18
      3.81156366749421E-02
      0.00000000000000E+00   7.43645263294128E-10   0.00000000000000E+00   0.00000000000000E+00  -3.46164409861803E-09
      4.43642327376629E-34  -3.46164409861803E-09   4.53113222563333E-18   0.00000000000000E+00   0.00000000000000E+00
      0.00000000000000E+00   0.00000000000000E+00   0.00000000000000E+00   0.00000000000000E+00   0.00000000000000E+00
      1.42465319513369E-18   0.00000000000000E+00   0.00000000000000E+00   0.00000000000000E+00   0.00000000000000E+00
     -1.62257634161266E-19  -5.81944157953667E-34  -1.62257634161267E-19  -1.05988839653584E-17   3.27794475404502E-02
      3.27794467953672E-02   0.00000000000000E+00   0.00000000000000E+00   3.46164409878029E-09   1.38301830577037E-34
      3.46164409878029E-09   4.64309854459143E-18
      4.26736738757145E-02
      0.00000000000000E+00   7.58289819899617E-10   0.00000000000000E+00   0.00000000000000E+00  -3.53059567415676E-09
      4.46626957529701E-34  -3.53059567415676E-09   4.52923044572570E-18   0.00000000000000E+00   0.00000000000000E+00
      0.00000000000000E+00   0.00000000000000E+00   0.00000000000000E+00   0.00000000000000E+00   0.00000000000000E+00
      1.37512947323543E-18   0.00000000000000E+00   0.00000000000000E+00   0.00000000000000E+00   0.00000000000000E+00
      9.53866770902577E-19  -5.61618630514365E-34   9.53866770902576E-19  -1.05968055055395E-17   3.66993595331145E-02
      3.66993587733747E-02   0.00000000000000E+00   0.00000000000000E+00   3.53059567320290E-09   1.14991672984663E-34
      3.53059567320290E-09   4.69244558657834E-18
      4.76571278818923E-02
      0.00000000000000E+00   7.71741730071754E-10   0.00000000000000E+00   0.00000000000000E+00  -3.59423095657955E-09
      4.64901971504185E-34  -3.59423095657955E-09   4.52715247801489E-18   0.00000000000000E+00   0.00000000000000E+00
      0.00000000000000E+00   0.00000000000000E+00   0.00000000000000E+00   0.00000000000000E+00   0.00000000000000E+00
      1.32101735689227E-18   0.00000000000000E+00   0.00000000000000E+00   0.00000000000000E+00   0.00000000000000E+00
      1.36730958749040E-18  -5.64722173574118E-34   1.36730958749040E-18  -1.05946354922169E-17   4.09851299784274E-02
      4.09851292052343E-02   0.00000000000000E+00   0.00000000000000E+00   3.59423095521223E-09   9.98202020699334E-35
      3.59423095521223E-09   4.74646565730967E-18
      5.31057042619801E-02
      0.00000000000000E+00   7.85067380943486E-10   0.00000000000000E+00   0.00000000000000E+00  -3.65753060928471E-09
      4.44865003525465E-34  -3.65753060928471E-09   4.52488200950656E-18   0.00000000000000E+00   0.00000000000000E+00
      0.00000000000000E+00   0.00000000000000E+00   0.00000000000000E+00   0.00000000000000E+00   0.00000000000000E+00
      1.26189245110639E-18   0.00000000000000E+00   0.00000000000000E+00   0.00000000000000E+00   0.00000000000000E+00
      2.03367772255394E-18  -5.29931205110165E-34   2.03367772255394E-18  -1.05923795091967E-17   4.56709056653029E-02
      4.56709048787938E-02   0.00000000000000E+00   0.00000000000000E+00   3.65753060725104E-09   8.50662015846999E-35
      3.65753060725104E-09   4.80560504858372E-18
      5.90628144375427E-02
      0.00000000000000E+00   7.99146741477541E-10   0.00000000000000E+00   0.00000000000000E+00  -3.72458167395149E-09
      4.60551815579590E-34  -3.72458167395149E-09   4.52240121693018E-18   0.00000000000000E+00   0.00000000000000E+00
      0.00000000000000E+00   0.00000000000000E+00   0.00000000000000E+00   0.00000000000000E+00   0.00000000000000E+00
      1.19729095445497E-18   0.00000000000000E+00   0.00000000000000E+00   0.00000000000000E+00   0.00000000000000E+00
     -6.48080043760943E-20  -5.32238179722631E-34  -6.48080043760948E-20  -1.05900451089340E-17   5.07940204162867E-02
      5.07940196157196E-02   0.00000000000000E+00   0.00000000000000E+00   3.72458167401630E-09   7.16863641430417E-35
      3.72458167401630E-09   4.87035293754893E-18
      6.55362074949873E-02
      0.00000000000000E+00   8.14521984764283E-10   0.00000000000000E+00   0.00000000000000E+00  -3.79787936146102E-09
      4.64149667344375E-34  -3.79787936146102E-09   4.51970714901640E-18   0.00000000000000E+00   0.00000000000000E+00
      0.00000000000000E+00   0.00000000000000E+00   0.00000000000000E+00   0.00000000000000E+00   0.00000000000000E+00
      1.12713621364020E-18   0.00000000000000E+00   0.00000000000000E+00   0.00000000000000E+00   0.00000000000000E+00
     -1.64869303979768E-19  -5.23199393743833E-34  -1.64869303979768E-19  -1.05876562428100E-17   5.63611384456891E-02
      5.63611376297785E-02   0.00000000000000E+00   0.00000000000000E+00   3.79787936162589E-09   5.90497263994584E-35
      3.79787936162589E-09   4.94081288015338E-18
      7.25706279507439E-02
      0.00000000000000E+00   8.31636111987832E-10   0.00000000000000E+00   0.00000000000000E+00  -3.87950140274047E-09
      4.43343971290663E-34  -3.87950140274047E-09   4.51678147101816E-18   0.00000000000000E+00   0.00000000000000E+00
      0.00000000000000E+00   0.00000000000000E+00   0.00000000000000E+00   0.00000000000000E+00   0.00000000000000E+00
      1.05095080539077E-18   0.00000000000000E+00   0.00000000000000E+00   0.00000000000000E+00   0.00000000000000E+00
      2.08058059339539E-19  -4.90936290542650E-34   2.08058059339539E-19  -1.05852247772433E-17   6.24107400376398E-02
      6.24107392046606E-02   0.00000000000000E+00   0.00000000000000E+00   3.87950140253241E-09   4.75923192519864E-35
      3.87950140253241E-09   5.01749250083436E-18
      8.02146981793327E-02
      0.00000000000000E+00   8.50747926310185E-10   0.00000000000000E+00   0.00000000000000E+00  -3.97068872179742E-09
      4.52390287141948E-34  -3.97068872179742E-09   4.51360428838963E-18   0.00000000000000E+00   0.00000000000000E+00
      0.00000000000000E+00   0.00000000000000E+00   0.00000000000000E+00   0.00000000000000E+00   0.00000000000000E+00
      9.68216215160005E-19   0.00000000000000E+00   0.00000000000000E+00   0.00000000000000E+00   0.00000000000000E+00
      2.90238287018988E-20  -4.89957161507600E-34   2.90238287018983E-20  -1.05827650615168E-17   6.89846404342261E-02
      6.89846395821969E-02   0.00000000000000E+00   0.00000000000000E+00   3.97068872176840E-09   3.75668743656509E-35
      3.97068872176840E-09   5.10094455796714E-18
      8.85212544943992E-02
      0.00000000000000E+00   8.71930041201073E-10   0.00000000000000E+00   0.00000000000000E+00  -4.07179298648719E-09
      4.72328927047802E-34  -4.07179298648719E-09   4.51015402298223E-18   0.00000000000000E+00   0.00000000000000E+00
      0.00000000000000E+00   0.00000000000000E+00   0.00000000000000E+00   0.00000000000000E+00   0.00000000000000E+00
      8.78369362093458E-19   0.00000000000000E+00   0.00000000000000E+00   0.00000000000000E+00   0.00000000000000E+00
      4.96548679433175E-20  -5.00528509124068E-34   4.96548679433170E-20  -1.05802942517232E-17   7.61282788651833E-02
      7.61282779920415E-02   0.00000000000000E+00   0.00000000000000E+00   4.07179298643754E-09   2.81995820762654E-35
      4.07179298643754E-09   5.19177086664755E-18
      9.75477123567714E-02
      0.00000000000000E+00   8.95255214700651E-10   0.00000000000000E+00   0.00000000000000E+00  -4.18317988742019E-09
      4.63262902431738E-34  -4.18317988742019E-09   4.50640725226725E-18   0.00000000000000E+00   0.00000000000000E+00
      0.00000000000000E+00   0.00000000000000E+00   0.00000000000000E+00   0.00000000000000E+00   0.00000000000000E+00
      7.80798670424562E-19   0.00000000000000E+00   0.00000000000000E+00   0.00000000000000E+00   0.00000000000000E+00
     -2.55003546729071E-19  -4.84573475351483E-34  -2.55003546729072E-19  -1.05778324376285E-17   8.38910326268234E-02
      8.38910317304295E-02   0.00000000000000E+00   0.00000000000000E+00   4.18317988767519E-09   2.13105729197453E-35
      4.18317988767519E-09   5.29062651493669E-18
      1.07356463233883E-01
      0.00000000000000E+00   9.20953407888715E-10   0.00000000000000E+00   0.00000000000000E+00  -4.30598453898371E-09
      4.51936118320601E-34  -4.30598453898371E-09   4.50233853198996E-18   0.00000000000000E+00   0.00000000000000E+00
      0.00000000000000E+00   0.00000000000000E+00   0.00000000000000E+00   0.00000000000000E+00   0.00000000000000E+00
      6.74839726767276E-19   0.00000000000000E+00   0.00000000000000E+00   0.00000000000000E+00   0.00000000000000E+00
     -1.66500915086725E-19  -4.68830832495920E-34  -1.66500915086725E-19  -1.05754026826555E-17   9.23265583811390E-02
      9.23265574591320E-02   0.00000000000000E+00   0.00000000000000E+00   4.30598453915021E-09   1.68947141753192E-35
      4.30598453915021E-09   5.39822442389823E-18
      1.17356463233883E-01
      0.00000000000000E+00   9.47621628339881E-10   0.00000000000000E+00   0.00000000000000E+00  -4.43352555891243E-09
      4.35089237103765E-34  -4.43352555891243E-09   4.49819324746006E-18   0.00000000000000E+00   0.00000000000000E+00
      0.00000000000000E+00   0.00000000000000E+00   0.00000000000000E+00   0.00000000000000E+00   0.00000000000000E+00
      5.66881275342537E-19   0.00000000000000E+00   0.00000000000000E+00   0.00000000000000E+00   0.00000000000000E+00
     -6.73087486502553E-20  -4.47040859336440E-34  -6.73087486502557E-20  -1.05731700979940E-17   1.00926558381139E-01
      1.00926557432568E-01   0.00000000000000E+00   0.00000000000000E+00   4.43352555897974E-09   1.19516222326745E-35
      4.43352555897974E-09   5.50809557519142E-18
      1.27356463233883E-01
      0.00000000000000E+00   9.74857034831786E-10   0.00000000000000E+00   0.00000000000000E+00  -4.56387635673670E-09
      4.45875007192364E-34  -4.56387635673670E-09   4.49405058882443E-18   0.00000000000000E+00   0.00000000000000E+00
      0.00000000000000E+00   0.00000000000000E+00   0.00000000000000E+00   0.00000000000000E+00   0.00000000000000E+00
      4.58984333215837E-19   0.00000000000000E+00   0.00000000000000E+00   0.00000000000000E+00   0.00000000000000E+00
      1.52497119442329E-19  -4.54988741624668E-34   1.52497119442328E-19  -1.05711670738920E-17   1.09526558381139E-01
      1.09526557405451E-01   0.00000000000000E+00   0.00000000000000E+00   4.56387635658421E-09   9.11373443230365E-36
      4.56387635658421E-09   5.61813215185173E-18
      1.37356463233883E-01
      0.00000000000000E+00   1.00272366469009E-09   0.00000000000000E+00   0.00000000000000E+00  -4.69733941422988E-09
      4.39892673965380E-34  -4.69733941422988E-09   4.48991041674729E-18   0.00000000000000E+00   0.00000000000000E+00
      0.00000000000000E+00   0.00000000000000E+00   0.00000000000000E+00   0.00000000000000E+00   0.00000000000000E+00
      3.51144081511956E-19   0.00000000000000E+00   0.00000000000000E+00   0.00000000000000E+00   0.00000000000000E+00
      6.12833404494663E-21  -4.46526056834660E-34   6.12833404494618E-21  -1.05693779099544E-17   1.18126558381139E-01
      1.18126557377707E-01   0.00000000000000E+00   0.00000000000000E+00   4.69733941422375E-09   6.63338286928044E-36
      4.69733941422375E-09   5.72832341169523E-18
      1.47356463233883E-01
      0.00000000000000E+00   1.03125130168902E-09   0.00000000000000E+00   0.00000000000000E+00  -4.83405445672130E-09
      4.33743523857670E-34  -4.83405445672130E-09   4.48577260666056E-18   0.00000000000000E+00   0.00000000000000E+00
      0.00000000000000E+00   0.00000000000000E+00   0.00000000000000E+00   0.00000000000000E+00   0.00000000000000E+00
      2.43356332775325E-19   0.00000000000000E+00   0.00000000000000E+00   0.00000000000000E+00   0.00000000000000E+00
     -4.92704912013854E-20  -4.38569740849384E-34  -4.92704912013859E-20  -1.05677883676038E-17   1.26726558381139E-01
      1.26726557349302E-01   0.00000000000000E+00   0.00000000000000E+00   4.83405445677057E-09   4.82621699171350E-36
      4.83405445677057E-09   5.83865942816789E-18
      1.57356463233883E-01
      0.00000000000000E+00   1.06044420527000E-09   0.00000000000000E+00   0.00000000000000E+00  -4.97404080352340E-09
      4.42752095020096E-34  -4.97404080352340E-09   4.48163704454161E-18   0.00000000000000E+00   0.00000000000000E+00
      0.00000000000000E+00   0.00000000000000E+00   0.00000000000000E+00   0.00000000000000E+00   0.00000000000000E+00
      1.35617383760300E-19   0.00000000000000E+00   0.00000000000000E+00   0.00000000000000E+00   0.00000000000000E+00
     -2.61409021393238E-19  -4.46340620718869E-34  -2.61409021393239E-19  -1.05663854313728E-17   1.35326558381139E-01
      1.35326557320229E-01   0.00000000000000E+00   0.00000000000000E+00   4.97404080378481E-09   3.58852569877343E-36
      4.97404080378481E-09   5.94913100307087E-18
      1.67356463233883E-01
      0.00000000000000E+00   1.09029529431718E-09   0.00000000000000E+00   0.00000000000000E+00  -5.11726429528118E-09
      4.49434204502807E-34  -5.11726429528118E-09   4.47750362545129E-18   0.00000000000000E+00   0.00000000000000E+00
      0.00000000000000E+00   0.00000000000000E+00   0.00000000000000E+00   0.00000000000000E+00   0.00000000000000E+00
      2.79239317164803E-20   0.00000000000000E+00   0.00000000000000E+00   0.00000000000000E+00   0.00000000000000E+00
     -2.74394826446018E-20  -4.52080037265164E-34  -2.74394826446022E-20  -1.05651571550217E-17   1.43926558381139E-01
      1.43926557290497E-01   0.00000000000000E+00   0.00000000000000E+00   5.11726429530861E-09   2.64583276235734E-36
      5.11726429530861E-09   6.05972959785394E-18
      1.77356463233883E-01
      0.00000000000000E+00   1.12079695592234E-09   0.00000000000000E+00   0.00000000000000E+00  -5.26369035847835E-09
      4.32633713446645E-34  -5.26369035847835E-09   4.47337225450090E-18   0.00000000000000E+00   0.00000000000000E+00
      0.00000000000000E+00   0.00000000000000E+00   0.00000000000000E+00   0.00000000000000E+00   0.00000000000000E+00
     -7.97269486692774E-20   0.00000000000000E+00   0.00000000000000E+00   0.00000000000000E+00   0.00000000000000E+00
     -1.90451618263389E-19  -4.34605078873409E-34  -1.90451618263389E-19  -1.05640925861494E-17   1.52526558381139E-01
      1.52526557260118E-01   0.00000000000000E+00   0.00000000000000E+00   5.26369035866880E-09   1.97136542676411E-36
      5.26369035866880E-09   6.17044728031778E-18
      1.87356463233883E-01
      0.00000000000000E+00   1.15194691324311E-09   0.00000000000000E+00   0.00000000000000E+00  -5.41331172708269E-09