DF-ISE text

Info {
  version   = 1.0
  type      = xyplot
  datasets  = [
    "time"
    "source OuterVoltage" "source InnerVoltage" "source QuasiFermiPotential" "source DisplacementCurrent" "source eCurrent"
    "source hCurrent" "source TotalCurrent" "source Charge" "gate OuterVoltage" "gate InnerVoltage"
    "gate QuasiFermiPotential" "gate DisplacementCurrent" "gate eCurrent" "gate hCurrent" "gate TotalCurrent"
    "gate Charge" "substrate OuterVoltage" "substrate InnerVoltage" "substrate QuasiFermiPotential" "substrate DisplacementCurrent"
    "substrate eCurrent" "substrate hCurrent" "substrate TotalCurrent" "substrate Charge" "drain OuterVoltage"
    "drain InnerVoltage" "drain QuasiFermiPotential" "drain DisplacementCurrent" "drain eCurrent" "drain hCurrent"
    "drain TotalCurrent" "drain Charge" ]
  functions = [
    Time
    OuterVoltage InnerVoltage QuasiFermiPotential DisplacementCurrent eCurrent
    hCurrent TotalCurrent Charge OuterVoltage InnerVoltage
    QuasiFermiPotential DisplacementCurrent eCurrent hCurrent TotalCurrent
    Charge OuterVoltage InnerVoltage QuasiFermiPotential DisplacementCurrent
    eCurrent hCurrent TotalCurrent Charge OuterVoltage
    InnerVoltage QuasiFermiPotential DisplacementCurrent eCurrent hCurrent
    TotalCurrent Charge ]
}

Data {
      0.00000000000000E+00
      0.00000000000000E+00   0.00000000000000E+00   0.00000000000000E+00   0.00000000000000E+00   3.90736499034764E-22
      6.45188617459659E-34   3.90736499035409E-22   4.93357547608715E-18   0.00000000000000E+00   0.00000000000000E+00
      0.00000000000000E+00   0.00000000000000E+00   0.00000000000000E+00   0.00000000000000E+00   0.00000000000000E+00
      3.46946037113763E-18   0.00000000000000E+00   0.00000000000000E+00   0.00000000000000E+00   0.00000000000000E+00
     -1.31699204108058E-21  -1.27483548760290E-33  -1.31699204108185E-21  -1.25256987533564E-17   0.00000000000000E+00
      0.00000000000000E+00   0.00000000000000E+00   0.00000000000000E+00   9.26255542045815E-22   6.29646870143237E-34
      9.26255542046444E-22   4.12266290613164E-18
      0.00000000000000E+00
      0.00000000000000E+00   0.00000000000000E+00   0.00000000000000E+00   0.00000000000000E+00  -1.20297637993785E-20
      6.44140705948144E-34  -1.20297637993779E-20   4.93171608778749E-18   0.00000000000000E+00   0.00000000000000E+00
      0.00000000000000E+00   0.00000000000000E+00   0.00000000000000E+00   0.00000000000000E+00   0.00000000000000E+00
      3.46338674793637E-18   0.00000000000000E+00   0.00000000000000E+00   0.00000000000000E+00   0.00000000000000E+00
      2.92032095124034E-20  -1.24386837864439E-33   2.92032095124022E-20  -1.25164450421227E-17   0.00000000000000E+00
      0.00000000000000E+00   0.00000000000000E+00   0.00000000000000E+00  -1.71734457130249E-20   5.99727672696241E-34
     -1.71734457130243E-20   4.12134220639881E-18
      1.00000000000000E-03
      0.00000000000000E+00   1.67462868664834E-12   0.00000000000000E+00   0.00000000000000E+00  -7.75854060856504E-12
      6.63748389502590E-34  -7.75854060856504E-12   4.93169733589532E-18   0.00000000000000E+00   0.00000000000000E+00
      0.00000000000000E+00   0.00000000000000E+00   0.00000000000000E+00   0.00000000000000E+00   0.00000000000000E+00
      3.46279927808731E-18   0.00000000000000E+00   0.00000000000000E+00   0.00000000000000E+00   0.00000000000000E+00
     -8.91308107614387E-20  -1.27510011293407E-33  -8.91308107614400E-20  -1.25164250297421E-17   5.00000000000000E-05
      4.99999983039784E-05   0.00000000000000E+00   0.00000000000000E+00   7.75854069769585E-12   6.11351723431480E-34
      7.75854069769585E-12   4.12192841575943E-18
      2.09333333333333E-03
      0.00000000000000E+00   3.49998806885051E-12   0.00000000000000E+00   0.00000000000000E+00  -1.62153363543120E-11
      6.79288933541582E-34  -1.62153363543120E-11   4.93167683406883E-18   0.00000000000000E+00   0.00000000000000E+00
      0.00000000000000E+00   0.00000000000000E+00   0.00000000000000E+00   0.00000000000000E+00   0.00000000000000E+00
      3.46215698669068E-18   0.00000000000000E+00   0.00000000000000E+00   0.00000000000000E+00   0.00000000000000E+00
      9.85116670892214E-21  -1.25422618229599E-33   9.85116670892088E-21  -1.25164031711186E-17   1.04666666666667E-04
      1.04666663121978E-04   0.00000000000000E+00   0.00000000000000E+00   1.62153363444608E-11   5.74937248754407E-34
      1.62153363444608E-11   4.12256935035907E-18
      3.29600000000000E-03
      0.00000000000000E+00   5.50089139267339E-12   0.00000000000000E+00   0.00000000000000E+00  -2.54854171956442E-11
      6.68987594266817E-34  -2.54854171956442E-11   4.93165428235327E-18   0.00000000000000E+00   0.00000000000000E+00
      0.00000000000000E+00   0.00000000000000E+00   0.00000000000000E+00   0.00000000000000E+00   0.00000000000000E+00
      3.46145047696931E-18   0.00000000000000E+00   0.00000000000000E+00   0.00000000000000E+00   0.00000000000000E+00
      5.35650072227836E-21  -1.31107566645514E-33   5.35650072227705E-21  -1.25163791526484E-17   1.64800000000000E-04
      1.64799994428863E-04   0.00000000000000E+00   0.00000000000000E+00   2.54854171902877E-11   6.42088072188323E-34
      2.54854171902877E-11   4.12327439332574E-18
      4.61893333333333E-03
      0.00000000000000E+00   7.69326318736911E-12   0.00000000000000E+00   0.00000000000000E+00  -3.56425043655313E-11
      5.93884811157860E-34  -3.56425043655313E-11   4.93162947582224E-18   0.00000000000000E+00   0.00000000000000E+00
      0.00000000000000E+00   0.00000000000000E+00   0.00000000000000E+00   0.00000000000000E+00   0.00000000000000E+00
      3.46067332934911E-18   0.00000000000000E+00   0.00000000000000E+00   0.00000000000000E+00   0.00000000000000E+00
      1.31695962556919E-20  -1.18868411403602E-33   1.31695962556907E-20  -1.25163527637838E-17   2.30946666666667E-04
      2.30946658875160E-04   0.00000000000000E+00   0.00000000000000E+00   3.56425043523617E-11   5.94799302878165E-34
      3.56425043523617E-11   4.12404995861244E-18
      6.07416000000000E-03
      0.00000000000000E+00   1.00942927432040E-11   0.00000000000000E+00   0.00000000000000E+00  -4.67662162764469E-11
      6.27963569926417E-34  -4.67662162764469E-11   4.93160218906947E-18   0.00000000000000E+00   0.00000000000000E+00
      0.00000000000000E+00   0.00000000000000E+00   0.00000000000000E+00   0.00000000000000E+00   0.00000000000000E+00
      3.45981848276840E-18   0.00000000000000E+00   0.00000000000000E+00   0.00000000000000E+00   0.00000000000000E+00
      3.80649775872912E-20  -1.23515347139778E-33   3.80649775872899E-20  -1.25163237740558E-17   3.03708000000000E-04
      3.03707989776800E-04   0.00000000000000E+00   0.00000000000000E+00   4.67662162383820E-11   6.07189901471358E-34
      4.67662162383820E-11   4.12490310221794E-18
      7.67490933333333E-03
      0.00000000000000E+00   1.27224947795421E-11   0.00000000000000E+00   0.00000000000000E+00  -5.89422908964772E-11
      6.64237557096996E-34  -5.89422908964772E-11   4.93157217416381E-18   0.00000000000000E+00   0.00000000000000E+00
      0.00000000000000E+00   0.00000000000000E+00   0.00000000000000E+00   0.00000000000000E+00   0.00000000000000E+00
      3.45887817062654E-18   0.00000000000000E+00   0.00000000000000E+00   0.00000000000000E+00   0.00000000000000E+00
      5.60646887175871E-20  -1.26666250043786E-33   5.60646887175858E-20  -1.25162919313168E-17   3.83745466666667E-04
      3.83745453781710E-04   0.00000000000000E+00   0.00000000000000E+00   5.89422908404125E-11   6.02424943340861E-34
      5.89422908404125E-11   4.12584158652648E-18
      9.43573360000000E-03
      0.00000000000000E+00   1.55977507328456E-11   0.00000000000000E+00   0.00000000000000E+00  -7.22627929248399E-11
      6.66136252005371E-34  -7.22627929248399E-11   4.93153915839988E-18   0.00000000000000E+00   0.00000000000000E+00
      0.00000000000000E+00   0.00000000000000E+00   0.00000000000000E+00   0.00000000000000E+00   0.00000000000000E+00
      3.45784385034722E-18   0.00000000000000E+00   0.00000000000000E+00   0.00000000000000E+00   0.00000000000000E+00
      7.44766870220181E-20  -1.28707681793119E-33   7.44766870220168E-20  -1.25162569598565E-17   4.71786680000000E-04
      4.71786664203084E-04   0.00000000000000E+00   0.00000000000000E+00   7.22627928503632E-11   6.20940565925816E-34
      7.22627928503632E-11   4.12687395110939E-18
      1.13726402933333E-02
      0.00000000000000E+00   1.87413331924317E-11   0.00000000000000E+00   0.00000000000000E+00  -8.68262750093161E-11
      6.65440416342443E-34  -8.68262750093161E-11   4.93150284182459E-18   0.00000000000000E+00   0.00000000000000E+00
      0.00000000000000E+00   0.00000000000000E+00   0.00000000000000E+00   0.00000000000000E+00   0.00000000000000E+00
      3.45670612592220E-18   0.00000000000000E+00   0.00000000000000E+00   0.00000000000000E+00   0.00000000000000E+00
      2.82068552185370E-20  -1.25027768913563E-33   2.82068552185358E-20  -1.25162185583875E-17   5.68632014666667E-04
      5.68631995686043E-04   0.00000000000000E+00   0.00000000000000E+00   8.68262749811093E-11   5.84837272793188E-34
      8.68262749811093E-11   4.12800959064071E-18
      1.35032376560000E-02
      0.00000000000000E+00   2.21759623554934E-11   0.00000000000000E+00   0.00000000000000E+00  -1.02737869424411E-10
      6.61516181159062E-34  -1.02737869424411E-10   4.93146289451727E-18   0.00000000000000E+00   0.00000000000000E+00
      0.00000000000000E+00   0.00000000000000E+00   0.00000000000000E+00   0.00000000000000E+00   0.00000000000000E+00
      3.45545466273857E-18   0.00000000000000E+00   0.00000000000000E+00   0.00000000000000E+00   0.00000000000000E+00
      5.37002089203308E-20  -1.26624194737037E-33   5.37002089203295E-20  -1.25161763979006E-17   6.75161882800000E-04
      6.75161860340911E-04   0.00000000000000E+00   0.00000000000000E+00   1.02737869370710E-10   6.04725766211310E-34
      1.02737869370710E-10   4.12925884064477E-18
      1.58468947549333E-02
      0.00000000000000E+00   2.59257520999153E-11   0.00000000000000E+00   0.00000000000000E+00  -1.20109287362731E-10
      6.19650247592843E-34  -1.20109287362731E-10   4.93141895359834E-18   0.00000000000000E+00   0.00000000000000E+00
      0.00000000000000E+00   0.00000000000000E+00   0.00000000000000E+00   0.00000000000000E+00   0.00000000000000E+00
      3.45407809392239E-18   0.00000000000000E+00   0.00000000000000E+00   0.00000000000000E+00   0.00000000000000E+00
      1.23071098686507E-19  -1.21397722708081E-33   1.23071098686506E-19  -1.25161301193879E-17   7.92344737746667E-04
      7.92344711489929E-04   0.00000000000000E+00   0.00000000000000E+00   1.20109287239660E-10   5.94326979487964E-34
      1.20109287239660E-10   4.13063307186715E-18
      1.84249175637600E-02
      0.00000000000000E+00   3.00162394757024E-11   0.00000000000000E+00   0.00000000000000E+00  -1.39058697165342E-10
      6.87496528983594E-34  -1.39058697165342E-10   4.93137061994045E-18   0.00000000000000E+00   0.00000000000000E+00
      0.00000000000000E+00   0.00000000000000E+00   0.00000000000000E+00   0.00000000000000E+00   0.00000000000000E+00
      3.45256391735878E-18   0.00000000000000E+00   0.00000000000000E+00   0.00000000000000E+00   0.00000000000000E+00
      1.72354288097551E-19  -1.27197369061525E-33   1.72354288097550E-19  -1.25160793314409E-17   9.21245878188001E-04
      9.21245847788574E-04   0.00000000000000E+00   0.00000000000000E+00   1.39058696992988E-10   5.84477161631660E-34
      1.39058696992988E-10   4.13214479414172E-18
      2.12607426534693E-02
      0.00000000000000E+00   3.44742979159167E-11   0.00000000000000E+00   0.00000000000000E+00  -1.59710446035200E-10
      6.62784500066683E-34  -1.59710446035200E-10   4.93131745455191E-18   0.00000000000000E+00   0.00000000000000E+00
      0.00000000000000E+00   0.00000000000000E+00   0.00000000000000E+00   0.00000000000000E+00   0.00000000000000E+00
      3.45089838246425E-18   0.00000000000000E+00   0.00000000000000E+00   0.00000000000000E+00   0.00000000000000E+00
      2.52231978904213E-19  -1.25948294310971E-33   2.52231978904211E-19  -1.25160236077312E-17   1.06303713267347E-03
      1.06303709775911E-03   0.00000000000000E+00   0.00000000000000E+00   1.59710445782968E-10   5.96698443043021E-34
      1.59710445782968E-10   4.13380777071504E-18
      2.43801502521496E-02
      0.00000000000000E+00   3.93280142152860E-11   0.00000000000000E+00   0.00000000000000E+00  -1.82194588135725E-10
      6.34377105272484E-34  -1.82194588135725E-10   4.93125897459999E-18   0.00000000000000E+00   0.00000000000000E+00
      0.00000000000000E+00   0.00000000000000E+00   0.00000000000000E+00   0.00000000000000E+00   0.00000000000000E+00
      3.44906636569587E-18   0.00000000000000E+00   0.00000000000000E+00   0.00000000000000E+00   0.00000000000000E+00
      4.30089421787280E-19  -1.23223634770833E-33   4.30089421787279E-19  -1.25159624843838E-17   1.21900751260748E-03
      1.21900747277749E-03   0.00000000000000E+00   0.00000000000000E+00   1.82194587705636E-10   5.97859242435841E-34
      1.82194587705636E-10   4.13563714408796E-18
      2.78114986106979E-02
      0.00000000000000E+00   4.46065714070990E-11   0.00000000000000E+00   0.00000000000000E+00  -2.06646177950982E-10
      6.31112308785558E-34  -2.06646177950982E-10   4.93119464903894E-18   0.00000000000000E+00   0.00000000000000E+00
      0.00000000000000E+00   0.00000000000000E+00   0.00000000000000E+00   0.00000000000000E+00   0.00000000000000E+00
      3.44705123368243E-18   0.00000000000000E+00   0.00000000000000E+00   0.00000000000000E+00   0.00000000000000E+00
      5.82807311567346E-19  -1.25732875870565E-33   5.82807311567344E-19  -1.25158954572643E-17   1.39057493053490E-03
      1.39057488535900E-03   0.00000000000000E+00   0.00000000000000E+00   2.06646177368175E-10   6.26216449920094E-34
      2.06646177368175E-10   4.13764957454299E-18
      3.15859818051010E-02
      0.00000000000000E+00   5.03400456936480E-11   0.00000000000000E+00   0.00000000000000E+00  -2.33204275377588E-10
      6.24031567172220E-34  -2.33204275377588E-10   4.93112389380274E-18   0.00000000000000E+00   0.00000000000000E+00
      0.00000000000000E+00   0.00000000000000E+00   0.00000000000000E+00   0.00000000000000E+00   0.00000000000000E+00
      3.44483469275445E-18   0.00000000000000E+00   0.00000000000000E+00   0.00000000000000E+00   0.00000000000000E+00
      8.70993070594903E-19  -1.21703025730753E-33   8.70993070594901E-19  -1.25158219792043E-17   1.57929909025505E-03
      1.57929903927256E-03   0.00000000000000E+00   0.00000000000000E+00   2.33204274506594E-10   5.92998690135313E-34
      2.33204274506594E-10   4.13986339264709E-18
      3.57379133189445E-02
      0.00000000000000E+00   5.65590710865470E-11   0.00000000000000E+00   0.00000000000000E+00  -2.62010605449871E-10
      6.32514410895957E-34  -2.62010605449871E-10   4.93104606652004E-18   0.00000000000000E+00   0.00000000000000E+00
      0.00000000000000E+00   0.00000000000000E+00   0.00000000000000E+00   0.00000000000000E+00   0.00000000000000E+00
      3.44239662352950E-18   0.00000000000000E+00   0.00000000000000E+00   0.00000000000000E+00   0.00000000000000E+00
      1.31110058726682E-18  -1.22890923714816E-33   1.31110058726682E-18  -1.25157414572012E-17   1.78689566594722E-03
      1.78689560866639E-03   0.00000000000000E+00   0.00000000000000E+00   2.62010604138771E-10   5.96394826252205E-34
      2.62010604138771E-10   4.14229876715169E-18
      4.03050379841723E-02
      0.00000000000000E+00   6.32945015192119E-11   0.00000000000000E+00   0.00000000000000E+00  -2.93207815318516E-10
      6.73310136861049E-34  -2.93207815318516E-10   4.93096046070398E-18   0.00000000000000E+00   0.00000000000000E+00
      0.00000000000000E+00   0.00000000000000E+00   0.00000000000000E+00   0.00000000000000E+00   0.00000000000000E+00
      3.43971489907338E-18   0.00000000000000E+00   0.00000000000000E+00   0.00000000000000E+00   0.00000000000000E+00
     -1.29290703450238E-17  -1.22932341136064E-33  -1.29290703450238E-17  -1.25156532496318E-17   2.01525189920861E-03
      2.01525183510646E-03   0.00000000000000E+00   0.00000000000000E+00   2.93207828247586E-10   5.56013274499595E-34
      2.93207828247586E-10   4.14497788985439E-18
      4.53288751159228E-02
      0.00000000000000E+00   7.05769330857046E-11   0.00000000000000E+00   0.00000000000000E+00  -3.26937257407367E-10
      6.54782852023427E-34  -3.26937257407367E-10   4.93086629936506E-18   0.00000000000000E+00   0.00000000000000E+00
      0.00000000000000E+00   0.00000000000000E+00   0.00000000000000E+00   0.00000000000000E+00   0.00000000000000E+00
      3.43676518502863E-18   0.00000000000000E+00   0.00000000000000E+00   0.00000000000000E+00   0.00000000000000E+00
      1.14468515169908E-17  -1.26333868290678E-33   1.14468515169908E-17  -1.25155566635560E-17   2.26644375579614E-03
      2.26644368431871E-03   0.00000000000000E+00   0.00000000000000E+00   3.26937245960515E-10   6.08555830883348E-34
      3.26937245960515E-10   4.14792517916235E-18
      5.08550959608485E-02
      0.00000000000000E+00   7.84360661832459E-11   0.00000000000000E+00   0.00000000000000E+00  -3.63336185643962E-10
      6.27657174226301E-34  -3.63336185643962E-10   4.93076272798974E-18   0.00000000000000E+00   0.00000000000000E+00
      0.00000000000000E+00   0.00000000000000E+00   0.00000000000000E+00   0.00000000000000E+00   0.00000000000000E+00
      3.43352071992375E-18   0.00000000000000E+00   0.00000000000000E+00   0.00000000000000E+00   0.00000000000000E+00
      1.38260204948592E-17  -1.18314064768818E-33   1.38260204948592E-17  -1.25154509521733E-17   2.54275479804242E-03
      2.54275471860565E-03   0.00000000000000E+00   0.00000000000000E+00   3.63336171817942E-10   5.55483473461878E-34
      3.63336171817942E-10   4.15116750425978E-18
      5.69339388902666E-02
      0.00000000000000E+00   8.69000406911368E-11   0.00000000000000E+00   0.00000000000000E+00  -4.02534397153795E-10
      6.13936356449163E-34  -4.02534397153795E-10   4.93064880682260E-18   0.00000000000000E+00   0.00000000000000E+00
      0.00000000000000E+00   0.00000000000000E+00   0.00000000000000E+00   0.00000000000000E+00   0.00000000000000E+00
      3.42995207371546E-18   0.00000000000000E+00   0.00000000000000E+00   0.00000000000000E+00   0.00000000000000E+00
      5.90664729202642E-18  -1.16441046205973E-33   5.90664729202642E-18  -1.25153353125277E-17   2.84669694451333E-03
      2.84669685650470E-03   0.00000000000000E+00   0.00000000000000E+00   4.02534391247148E-10   5.50474105610564E-34
      4.02534391247148E-10   4.15473443198966E-18
      6.36206661126266E-02
      0.00000000000000E+00   9.59944964580789E-11   0.00000000000000E+00   0.00000000000000E+00  -4.44650168100956E-10
      6.84330700131761E-34  -4.44650168100956E-10   4.93052350238296E-18   0.00000000000000E+00   0.00000000000000E+00
      0.00000000000000E+00   0.00000000000000E+00   0.00000000000000E+00   0.00000000000000E+00   0.00000000000000E+00
      3.42602688242650E-18   0.00000000000000E+00   0.00000000000000E+00   0.00000000000000E+00   0.00000000000000E+00
      8.63105879733378E-18  -1.25079269631823E-33   8.63105879733377E-18  -1.25152088835925E-17   3.18103330563133E-03
      3.18103320841234E-03   0.00000000000000E+00   0.00000000000000E+00   4.44650159469897E-10   5.66461996186468E-34
      4.44650159469897E-10   4.15865849878301E-18
      7.09760660572226E-02
      0.00000000000000E+00   1.05741552056106E-10   0.00000000000000E+00   0.00000000000000E+00  -4.89785353301562E-10
      6.20622470839102E-34  -4.89785353301562E-10   4.93038567814116E-18   0.00000000000000E+00   0.00000000000000E+00
      0.00000000000000E+00   0.00000000000000E+00   0.00000000000000E+00   0.00000000000000E+00   0.00000000000000E+00
      3.42170955653407E-18   0.00000000000000E+00   0.00000000000000E+00   0.00000000000000E+00   0.00000000000000E+00
      1.25866550593759E-17  -1.17937530226891E-33   1.25866550593759E-17  -1.25150707448806E-17   3.54880330286113E-03
      3.54880319577085E-03   0.00000000000000E+00   0.00000000000000E+00   4.89785340714907E-10   5.58752831429808E-34
      4.89785340714907E-10   4.16297551020537E-18
      7.90670059962782E-02
      0.00000000000000E+00   1.16158597317205E-10   0.00000000000000E+00   0.00000000000000E+00  -5.38019754859866E-10
      6.56604078930788E-34  -5.38019754859866E-10   4.93023408427066E-18   0.00000000000000E+00   0.00000000000000E+00
      0.00000000000000E+00   0.00000000000000E+00   0.00000000000000E+00   0.00000000000000E+00   0.00000000000000E+00
      3.41696096053100E-18   0.00000000000000E+00   0.00000000000000E+00   0.00000000000000E+00   0.00000000000000E+00
      1.83007484914971E-17  -1.19697809988227E-33   1.83007484914971E-17  -1.25149199157597E-17   3.95335029981391E-03
      3.95335018217384E-03   0.00000000000000E+00   0.00000000000000E+00   5.38019736559117E-10   5.40374020951481E-34
      5.38019736559117E-10   4.16772487095802E-18
      8.79670399292394E-02
      0.00000000000000E+00   1.27256864262906E-10   0.00000000000000E+00   0.00000000000000E+00  -5.89404725710662E-10
      6.26176791432906E-34  -5.89404725710662E-10   4.93006734638621E-18   0.00000000000000E+00   0.00000000000000E+00
      0.00000000000000E+00   0.00000000000000E+00   0.00000000000000E+00   0.00000000000000E+00   0.00000000000000E+00
      3.41173806080567E-18   0.00000000000000E+00   0.00000000000000E+00   0.00000000000000E+00   0.00000000000000E+00
      2.64551475835195E-17  -1.18697948617591E-33   2.64551475835195E-17  -1.25147553556666E-17   4.39835199646197E-03
      4.39835186758220E-03   0.00000000000000E+00   0.00000000000000E+00   5.89404699255515E-10   5.60802694743002E-34
      5.89404699255515E-10   4.17294994847480E-18
      9.77570772554967E-02
      0.00000000000000E+00   1.39039919670941E-10   0.00000000000000E+00   0.00000000000000E+00  -6.43955788712279E-10
      6.13383418740370E-34  -6.43955788712279E-10   4.92988395316745E-18   0.00000000000000E+00   0.00000000000000E+00
      0.00000000000000E+00   0.00000000000000E+00   0.00000000000000E+00   0.00000000000000E+00   0.00000000000000E+00
      3.40599353881874E-18   0.00000000000000E+00   0.00000000000000E+00   0.00000000000000E+00   0.00000000000000E+00
      3.82385388105357E-17  -1.11182805596090E-33   3.82385388105357E-17  -1.25145759655778E-17   4.88785386277484E-03
      4.88785372196189E-03   0.00000000000000E+00   0.00000000000000E+00   6.43955750473740E-10   4.98444637220533E-34
      6.43955750473740E-10   4.17869847359161E-18
      1.07757077255497E-01
      0.00000000000000E+00   1.50628891982236E-10   0.00000000000000E+00   0.00000000000000E+00  -6.97603787074286E-10
      6.64800072725330E-34  -6.97603787074286E-10   4.92969664658154E-18   0.00000000000000E+00   0.00000000000000E+00
      0.00000000000000E+00   0.00000000000000E+00   0.00000000000000E+00   0.00000000000000E+00   0.00000000000000E+00
      3.40012653311098E-18   0.00000000000000E+00   0.00000000000000E+00   0.00000000000000E+00   0.00000000000000E+00
      4.40744561527445E-17  -1.18017344779045E-33   4.40744561527445E-17  -1.25143944755211E-17   5.38785386277483E-03
      5.38785371022527E-03   0.00000000000000E+00   0.00000000000000E+00   6.97603742999830E-10   5.15373375065123E-34
      6.97603742999830E-10   4.18457129582861E-18
      1.17757077255497E-01
      0.00000000000000E+00   1.61779907298524E-10   0.00000000000000E+00   0.00000000000000E+00  -7.49219989018168E-10
      6.29340439722345E-34  -7.49219989018168E-10   4.92950935981160E-18   0.00000000000000E+00   0.00000000000000E+00
      0.00000000000000E+00   0.00000000000000E+00   0.00000000000000E+00   0.00000000000000E+00   0.00000000000000E+00
      3.39426024569070E-18   0.00000000000000E+00   0.00000000000000E+00   0.00000000000000E+00   0.00000000000000E+00
      2.31598756760206E-17  -1.14036246259181E-33   2.31598756760206E-17  -1.25142147395541E-17   5.88785386277483E-03
      5.88785369893219E-03   0.00000000000000E+00   0.00000000000000E+00   7.49219965858292E-10   5.11022022869464E-34
      7.49219965858292E-10   4.19044513405180E-18
      1.27757077255497E-01
      0.00000000000000E+00   1.72506531677320E-10   0.00000000000000E+00   0.00000000000000E+00  -7.98867630314628E-10
      6.26624964108557E-34  -7.98867630314628E-10   4.92932209267383E-18   0.00000000000000E+00   0.00000000000000E+00
      0.00000000000000E+00   0.00000000000000E+00   0.00000000000000E+00   0.00000000000000E+00   0.00000000000000E+00
      3.38839467069136E-18   0.00000000000000E+00   0.00000000000000E+00   0.00000000000000E+00   0.00000000000000E+00
      4.36056410097358E-17  -1.12531904435778E-33   4.36056410097358E-17  -1.25140367458726E-17   6.38785386277483E-03
      6.38785368806892E-03   0.00000000000000E+00   0.00000000000000E+00   7.98867586708986E-10   4.98694080249228E-34
      7.98867586708986E-10   4.19631998250738E-18
      1.37757077255497E-01
      0.00000000000000E+00   1.82822192987726E-10   0.00000000000000E+00   0.00000000000000E+00  -8.46609231054409E-10
      6.76303936331546E-34  -8.46609231054409E-10   4.92913484498428E-18   0.00000000000000E+00   0.00000000000000E+00
      0.00000000000000E+00   0.00000000000000E+00   0.00000000000000E+00   0.00000000000000E+00   0.00000000000000E+00
      3.38252980230073E-18   0.00000000000000E+00   0.00000000000000E+00   0.00000000000000E+00   0.00000000000000E+00
      4.29312516052369E-17  -1.20737551242959E-33   4.29312516052369E-17  -1.25138604827699E-17   6.88785386277483E-03
      6.88785367762186E-03   0.00000000000000E+00   0.00000000000000E+00   8.46609188123159E-10   5.31071576098041E-34
      8.46609188123159E-10   4.20219583548493E-18
      1.47757077255497E-01
      0.00000000000000E+00   1.92740034295896E-10   0.00000000000000E+00   0.00000000000000E+00  -8.92506094491391E-10
      6.17714744348544E-34  -8.92506094491391E-10   4.92894761655995E-18   0.00000000000000E+00   0.00000000000000E+00
      0.00000000000000E+00   0.00000000000000E+00   0.00000000000000E+00   0.00000000000000E+00   0.00000000000000E+00
      3.37666563485303E-18   0.00000000000000E+00   0.00000000000000E+00   0.00000000000000E+00   0.00000000000000E+00
      4.21993553032420E-17  -1.10770582837136E-33   4.21993553032420E-17  -1.25136859387335E-17   7.38785386277483E-03
      7.38785366757772E-03   0.00000000000000E+00   0.00000000000000E+00   8.92506052292036E-10   4.89991084022815E-34
      8.92506052292036E-10   4.20807268732054E-18
      1.57757077255497E-01
      0.00000000000000E+00   2.02273135472068E-10   0.00000000000000E+00   0.00000000000000E+00  -9.36619142057396E-10
      6.28769544866861E-34  -9.36619142057396E-10   4.92876040721481E-18   0.00000000000000E+00   0.00000000000000E+00
      0.00000000000000E+00   0.00000000000000E+00   0.00000000000000E+00   0.00000000000000E+00   0.00000000000000E+00
      3.37080216251235E-18   0.00000000000000E+00   0.00000000000000E+00   0.00000000000000E+00   0.00000000000000E+00
      6.61640087764813E-17  -1.11330645886173E-33   6.61640087764813E-17  -1.25135131020751E-17   7.88785386277484E-03
      7.88785365792322E-03   0.00000000000000E+00   0.00000000000000E+00   9.36619075893387E-10   4.84536913994865E-34
      9.36619075893387E-10   4.21395053234800E-18
      1.67757077255497E-01
      0.00000000000000E+00   2.11434186256996E-10   0.00000000000000E+00   0.00000000000000E+00  -9.79007706288674E-10
      6.57855720212550E-34  -9.79007706288674E-10   4.92857321676478E-18   0.00000000000000E+00   0.00000000000000E+00
      0.00000000000000E+00   0.00000000000000E+00   0.00000000000000E+00   0.00000000000000E+00   0.00000000000000E+00
      3.36493937959699E-18   0.00000000000000E+00   0.00000000000000E+00   0.00000000000000E+00   0.00000000000000E+00
      4.11898625600792E-17  -1.14561341412873E-33   4.11898625600792E-17  -1.25133419613204E-17   8.38785386277484E-03
      8.38785364864543E-03   0.00000000000000E+00   0.00000000000000E+00   9.79007665098811E-10   4.87757693916178E-34
      9.79007665098811E-10   4.21982936495865E-18
      1.77757077255497E-01
      0.00000000000000E+00   2.20235789602372E-10   0.00000000000000E+00   0.00000000000000E+00  -1.01972991404356E-09
      6.42012838712069E-34  -1.01972991404356E-09   4.92838604502718E-18   0.00000000000000E+00   0.00000000000000E+00
      0.00000000000000E+00   0.00000000000000E+00   0.00000000000000E+00   0.00000000000000E+00   0.00000000000000E+00
      3.35907728051033E-18   0.00000000000000E+00   0.00000000000000E+00   0.00000000000000E+00   0.00000000000000E+00
      4.05490913583478E-17  -1.09266161773018E-33   4.05490913583478E-17  -1.25131725051213E-17   8.88785386277484E-03
      8.88785363973181E-03   0.00000000000000E+00   0.00000000000000E+00   1.01972987349447E-09   4.50648779018109E-34
      1.01972987349447E-09   4.22570917958377E-18
      1.87757077255497E-01
      0.00000000000000E+00   2.28690091764039E-10   0.00000000000000E+00   0.00000000000000E+00  -1.05884266197932E-09
      6.07903930879078E-34  -1.05884266197932E-09   4.92819889181867E-18   0.00000000000000E+00   0.00000000000000E+00
      0.00000000000000E+00   0.00000000000000E+00   0.00000000000000E+00   0.00000000000000E+00   0.00000000000000E+00
      3.35321585963481E-18   0.00000000000000E+00   0.00000000000000E+00   0.00000000000000E+00   0.00000000000000E+00
      3.99058427709400E-17  -1.05429235936878E-33   3.99058427709400E-17  -1.25130047221334E-17   9.38785386277484E-03
      9.38785363116990E-03   0.00000000000000E+00   0.00000000000000E+00   1.05884262207348E-09   4.46388428489696E-34
      1.05884262207348E-09   4.23158997067992E-18
      1.97757077255497E-01
      0.00000000000000E+00   2.36809051937916E-10   0.00000000000000E+00   0.00000000000000E+00  -1.09640148279989E-09