DF-ISE text

Info {
  version   = 1.0
  type      = xyplot
  datasets  = [
    "time"
    "source OuterVoltage" "source InnerVoltage" "source QuasiFermiPotential" "source DisplacementCurrent" "source eCurrent"
    "source hCurrent" "source TotalCurrent" "source Charge" "gate OuterVoltage" "gate InnerVoltage"
    "gate QuasiFermiPotential" "gate DisplacementCurrent" "gate eCurrent" "gate hCurrent" "gate TotalCurrent"
    "gate Charge" "substrate OuterVoltage" "substrate InnerVoltage" "substrate QuasiFermiPotential" "substrate DisplacementCurrent"
    "substrate eCurrent" "substrate hCurrent" "substrate TotalCurrent" "substrate Charge" "drain OuterVoltage"
    "drain InnerVoltage" "drain QuasiFermiPotential" "drain DisplacementCurrent" "drain eCurrent" "drain hCurrent"
    "drain TotalCurrent" "drain Charge" ]
  functions = [
    Time
    OuterVoltage InnerVoltage QuasiFermiPotential DisplacementCurrent eCurrent
    hCurrent TotalCurrent Charge OuterVoltage InnerVoltage
    QuasiFermiPotential DisplacementCurrent eCurrent hCurrent TotalCurrent
    Charge OuterVoltage InnerVoltage QuasiFermiPotential DisplacementCurrent
    eCurrent hCurrent TotalCurrent Charge OuterVoltage
    InnerVoltage QuasiFermiPotential DisplacementCurrent eCurrent hCurrent
    TotalCurrent Charge ]
}

Data {
      0.00000000000000E+00
      0.00000000000000E+00   0.00000000000000E+00   0.00000000000000E+00   0.00000000000000E+00   1.64858734688103E-20
      5.73580007830666E-34   1.64858734688109E-20   5.78332418002567E-18   0.00000000000000E+00   0.00000000000000E+00
      0.00000000000000E+00   0.00000000000000E+00   0.00000000000000E+00   0.00000000000000E+00   0.00000000000000E+00
      4.61795265676851E-18   0.00000000000000E+00   0.00000000000000E+00   0.00000000000000E+00   0.00000000000000E+00
     -4.62206544807528E-21  -1.17912339896619E-33  -4.62206544807646E-21  -1.53373025012627E-17   0.00000000000000E+00
      0.00000000000000E+00   0.00000000000000E+00   0.00000000000000E+00  -1.18638080207350E-20   6.05543391135527E-34
     -1.18638080207344E-20   4.93602566446850E-18
      0.00000000000000E+00
      0.00000000000000E+00   0.00000000000000E+00   0.00000000000000E+00   0.00000000000000E+00  -1.99203407350032E-19
      5.43829157669026E-34  -1.99203407350031E-19   5.78097344913932E-18   0.00000000000000E+00   0.00000000000000E+00
      0.00000000000000E+00   0.00000000000000E+00   0.00000000000000E+00   0.00000000000000E+00   0.00000000000000E+00
      4.61042291887512E-18   0.00000000000000E+00   0.00000000000000E+00   0.00000000000000E+00   0.00000000000000E+00
      1.54441552568156E-19  -1.12930787930706E-33   1.54441552568155E-19  -1.53254962756478E-17   0.00000000000000E+00
      0.00000000000000E+00   0.00000000000000E+00   0.00000000000000E+00   4.47618547818755E-20   5.85478721638034E-34
      4.47618547818761E-20   4.93409990763333E-18
      1.00000000000000E-03
      0.00000000000000E+00   1.51321976027164E-11   0.00000000000000E+00   0.00000000000000E+00  -7.92386776560192E-11
      5.84690051056901E-34  -7.92386776560192E-11   5.78066002044226E-18   0.00000000000000E+00   0.00000000000000E+00
      0.00000000000000E+00   0.00000000000000E+00   0.00000000000000E+00   0.00000000000000E+00   0.00000000000000E+00
      4.59918687366289E-18   0.00000000000000E+00   0.00000000000000E+00   0.00000000000000E+00   0.00000000000000E+00
     -3.05210165042604E-19  -1.15832490779872E-33  -3.05210165042605E-19  -1.53250675652511E-17   8.60000000000000E-04
      8.59999984803757E-04   0.00000000000000E+00   0.00000000000000E+00   7.92386779612294E-11   5.73634856741823E-34
      7.92386779612294E-11   4.94522067114600E-18
      2.08666666666667E-03
      0.00000000000000E+00   3.06424289287767E-11   0.00000000000000E+00   0.00000000000000E+00  -1.60449679743842E-10
      5.74491276047596E-34  -1.60449679743842E-10   5.78031947842736E-18   0.00000000000000E+00   0.00000000000000E+00
      0.00000000000000E+00   0.00000000000000E+00   0.00000000000000E+00   0.00000000000000E+00   0.00000000000000E+00
      4.58697955974881E-18   0.00000000000000E+00   0.00000000000000E+00   0.00000000000000E+00   0.00000000000000E+00
      9.50896364062140E-16  -1.14384065227047E-33   9.50896364062140E-16  -1.53246083780687E-17   1.79453333333333E-03
      1.79453330256144E-03   0.00000000000000E+00   0.00000000000000E+00   1.60448728847478E-10   5.69349376222875E-34
      1.60448728847478E-10   4.95730933989251E-18
      3.28200000000000E-03
      0.00000000000000E+00   4.65983026947343E-11   0.00000000000000E+00   0.00000000000000E+00  -2.43983838845629E-10
      5.45863466029524E-34  -2.43983838845629E-10   5.77994494223173E-18   0.00000000000000E+00   0.00000000000000E+00
      0.00000000000000E+00   0.00000000000000E+00   0.00000000000000E+00   0.00000000000000E+00   0.00000000000000E+00
      4.57355450258312E-18   0.00000000000000E+00   0.00000000000000E+00   0.00000000000000E+00   0.00000000000000E+00
      1.30540119570348E-19  -1.07614169424071E-33   1.30540119570347E-19  -1.53241112123890E-17   2.82252000000000E-03
      2.82251995320538E-03   0.00000000000000E+00   0.00000000000000E+00   2.43983838715089E-10   5.30278228211185E-34
      2.43983838715089E-10   4.97061176757414E-18
      4.58889777777778E-03
      0.00000000000000E+00   6.27727959801627E-11   0.00000000000000E+00   0.00000000000000E+00  -3.28651028019388E-10
      5.78794709547307E-34  -3.28651028019388E-10   5.77953552010723E-18   0.00000000000000E+00   0.00000000000000E+00
      0.00000000000000E+00   0.00000000000000E+00   0.00000000000000E+00   0.00000000000000E+00   0.00000000000000E+00
      4.55887996385023E-18   0.00000000000000E+00   0.00000000000000E+00   0.00000000000000E+00   0.00000000000000E+00
      1.48557677100131E-19  -1.10088698001858E-33   1.48557677100130E-19  -1.53235770433619E-17   3.94645208888889E-03
      3.94645202585222E-03   0.00000000000000E+00   0.00000000000000E+00   3.28651027870831E-10   5.22092270471277E-34
      3.28651027870831E-10   4.98516155940444E-18
      6.01777268148148E-03
      0.00000000000000E+00   7.90219205720508E-11   0.00000000000000E+00   0.00000000000000E+00  -4.13695807994120E-10
      5.73118029527061E-34  -4.13695807994120E-10   5.77908796822647E-18   0.00000000000000E+00   0.00000000000000E+00
      0.00000000000000E+00   0.00000000000000E+00   0.00000000000000E+00   0.00000000000000E+00   0.00000000000000E+00
      4.54283993851714E-18   0.00000000000000E+00   0.00000000000000E+00   0.00000000000000E+00   0.00000000000000E+00
      3.06539697107422E-20  -1.07732874974626E-33   3.06539697107411E-20  -1.53230040985881E-17   5.17528450607408E-03
      5.17528442672073E-03   0.00000000000000E+00   0.00000000000000E+00   4.13695807963465E-10   5.04210720219202E-34
      4.13695807963465E-10   5.00107619184447E-18
      7.58000924286420E-03
      0.00000000000000E+00   9.51868643598029E-11   0.00000000000000E+00   0.00000000000000E+00  -4.98286050459159E-10
      5.75066957329193E-34  -4.98286050459159E-10   5.77859874183789E-18   0.00000000000000E+00   0.00000000000000E+00
      0.00000000000000E+00   0.00000000000000E+00   0.00000000000000E+00   0.00000000000000E+00   0.00000000000000E+00
      4.52530769326080E-18   0.00000000000000E+00   0.00000000000000E+00   0.00000000000000E+00   0.00000000000000E+00
      1.60589544528636E-19  -1.05674549443981E-33   1.60589544528635E-19  -1.53223907247065E-17   6.51880794886321E-03
      6.51880785327801E-03   0.00000000000000E+00   0.00000000000000E+00   4.98286050298569E-10   4.81678537110621E-34
      4.98286050298569E-10   5.01848428960777E-18
      9.28805454997597E-03
      0.00000000000000E+00   1.11095770925146E-10   0.00000000000000E+00   0.00000000000000E+00  -5.81521958078531E-10
      5.27056121411880E-34  -5.81521958078531E-10   5.77806396740014E-18   0.00000000000000E+00   0.00000000000000E+00
      0.00000000000000E+00   0.00000000000000E+00   0.00000000000000E+00   0.00000000000000E+00   0.00000000000000E+00
      4.50614477872129E-18   0.00000000000000E+00   0.00000000000000E+00   0.00000000000000E+00   0.00000000000000E+00
     -5.70337911238817E-20  -9.78841612144221E-34  -5.70337911238826E-20  -1.53217354418042E-17   7.98772691297934E-03
      7.98772680141966E-03   0.00000000000000E+00   0.00000000000000E+00   5.81521958135565E-10   4.51785490732340E-34
      5.81521958135565E-10   5.03752669568271E-18
      1.11555174190848E-02
      0.00000000000000E+00   1.26567077352581E-10   0.00000000000000E+00   0.00000000000000E+00  -6.62454124231539E-10
      5.93271120297219E-34  -6.62454124231539E-10   5.77747941212210E-18   0.00000000000000E+00   0.00000000000000E+00
      0.00000000000000E+00   0.00000000000000E+00   0.00000000000000E+00   0.00000000000000E+00   0.00000000000000E+00
      4.48519995083926E-18   0.00000000000000E+00   0.00000000000000E+00   0.00000000000000E+00   0.00000000000000E+00
     -1.17341341839196E-19  -1.03737910850556E-33  -1.17341341839197E-19  -1.53210370082264E-17   9.59374498041296E-03
      9.59374485331846E-03   0.00000000000000E+00   0.00000000000000E+00   6.62454124348880E-10   4.44107988208338E-34
      6.62454124348880E-10   5.05835764526504E-18
      1.31972768226439E-02
      0.00000000000000E+00   1.41414695999554E-10   0.00000000000000E+00   0.00000000000000E+00  -7.40110733077835E-10
      5.89673274478108E-34  -7.40110733077835E-10   5.77684045064853E-18   0.00000000000000E+00   0.00000000000000E+00
      0.00000000000000E+00   0.00000000000000E+00   0.00000000000000E+00   0.00000000000000E+00   0.00000000000000E+00
      4.46230799213835E-18   0.00000000000000E+00   0.00000000000000E+00   0.00000000000000E+00   0.00000000000000E+00
      1.90593909919310E-19  -9.97227232647749E-34   1.90593909919309E-19  -1.53202944962696E-17   1.13496580674737E-02
      1.13496579254709E-02   0.00000000000000E+00   0.00000000000000E+00   7.40110732887241E-10   4.07553958169641E-34
      7.40110732887241E-10   5.08114605348272E-18
      1.54296004372017E-02
      0.00000000000000E+00   1.55454602982608E-10   0.00000000000000E+00   0.00000000000000E+00  -8.13532169457319E-10
      5.87391594262883E-34  -8.13532169457319E-10   5.77614202864260E-18   0.00000000000000E+00   0.00000000000000E+00
      0.00000000000000E+00   0.00000000000000E+00   0.00000000000000E+00   0.00000000000000E+00   0.00000000000000E+00
      4.43728842460401E-18   0.00000000000000E+00   0.00000000000000E+00   0.00000000000000E+00   0.00000000000000E+00
     -2.09311470125887E-19  -9.55462160000665E-34  -2.09311470125888E-19  -1.53195073815248E-17   1.32694563759935E-02
      1.32694562198936E-02   0.00000000000000E+00   0.00000000000000E+00   8.13532169666630E-10   3.68070565737781E-34
      8.13532169666630E-10   5.10607692827817E-18
      1.78702742557850E-02
      0.00000000000000E+00   1.68513141883619E-10   0.00000000000000E+00   0.00000000000000E+00  -8.81814846541317E-10
      5.88740238547209E-34  -8.81814846541317E-10   5.77537862294001E-18   0.00000000000000E+00   0.00000000000000E+00
      0.00000000000000E+00   0.00000000000000E+00   0.00000000000000E+00   0.00000000000000E+00   0.00000000000000E+00
      4.40994410246585E-18   0.00000000000000E+00   0.00000000000000E+00   0.00000000000000E+00   0.00000000000000E+00
     -1.26578852577963E-19  -9.31885914989617E-34  -1.26578852577964E-19  -1.53186756453334E-17   1.53684358599751E-02
      1.53684356907635E-02   0.00000000000000E+00   0.00000000000000E+00   8.81814846667895E-10   3.43145676442409E-34
      8.81814846667895E-10   5.13335291992753E-18
      2.05387442974361E-02
      0.00000000000000E+00   1.80436709052089E-10   0.00000000000000E+00   0.00000000000000E+00  -9.44162167161532E-10
      5.80013393151684E-34  -9.44162167161532E-10   5.77454419794259E-18   0.00000000000000E+00   0.00000000000000E+00
      0.00000000000000E+00   0.00000000000000E+00   0.00000000000000E+00   0.00000000000000E+00   0.00000000000000E+00
      4.38005967366248E-18   0.00000000000000E+00   0.00000000000000E+00   0.00000000000000E+00   0.00000000000000E+00
      4.76407652134066E-20  -9.00917362304799E-34   4.76407652134057E-20  -1.53177998916457E-17   1.76633200957950E-02
      1.76633199146115E-02   0.00000000000000E+00   0.00000000000000E+00   9.44162167113891E-10   3.20903969153115E-34
      9.44162167113891E-10   5.16319602004068E-18
      2.34562715429746E-02
      0.00000000000000E+00   1.91102757703658E-10   0.00000000000000E+00   0.00000000000000E+00  -9.99941742086091E-10
      5.77406519119429E-34  -9.99941742086091E-10   5.77363215790598E-18   0.00000000000000E+00   0.00000000000000E+00
      0.00000000000000E+00   0.00000000000000E+00   0.00000000000000E+00   0.00000000000000E+00   0.00000000000000E+00
      4.34739989741548E-18   0.00000000000000E+00   0.00000000000000E+00   0.00000000000000E+00   0.00000000000000E+00
     -1.85930992222147E-19  -8.70830015713098E-34  -1.85930992222148E-19  -1.53168814798443E-17   2.01723935269581E-02
      2.01723933350655E-02   0.00000000000000E+00   0.00000000000000E+00   9.99941742272023E-10   2.93423496593669E-34
      9.99941742272023E-10   5.19584942452290E-18
      2.66461013314300E-02
      0.00000000000000E+00   2.00431448071768E-10   0.00000000000000E+00   0.00000000000000E+00  -1.04874676444933E-09
      6.06494708068276E-34  -1.04874676444933E-09   5.77263529468725E-18   0.00000000000000E+00   0.00000000000000E+00
      0.00000000000000E+00   0.00000000000000E+00   0.00000000000000E+00   0.00000000000000E+00   0.00000000000000E+00
      4.31170780244916E-18   0.00000000000000E+00   0.00000000000000E+00   0.00000000000000E+00   0.00000000000000E+00
     -1.19438093328776E-19  -8.79278669001223E-34  -1.19438093328776E-19  -1.53159226721505E-17   2.29156471450298E-02
      2.29156469437709E-02   0.00000000000000E+00   0.00000000000000E+00   1.04874676456877E-09   2.72783960932948E-34
      1.04874676456877E-09   5.23157957501413E-18
      3.01336485668079E-02
      0.00000000000000E+00   2.08396889360500E-10   0.00000000000000E+00   0.00000000000000E+00  -1.09045439263041E-09
      5.61932465752174E-34  -1.09045439263041E-09   5.77154573054321E-18   0.00000000000000E+00   0.00000000000000E+00
      0.00000000000000E+00   0.00000000000000E+00   0.00000000000000E+00   0.00000000000000E+00   0.00000000000000E+00
      4.27270267165305E-18   0.00000000000000E+00   0.00000000000000E+00   0.00000000000000E+00   0.00000000000000E+00
     -1.10011407194615E-19  -8.01395585567439E-34  -1.10011407194615E-19  -1.53149267975026E-17   2.59149377674548E-02
      2.59149375581986E-02   0.00000000000000E+00   0.00000000000000E+00   1.09045439274042E-09   2.39463119815265E-34
      1.09045439274042E-09   5.27067839530643E-18
      3.39467002108211E-02
      0.00000000000000E+00   2.15037041706240E-10   0.00000000000000E+00   0.00000000000000E+00  -1.12527732655160E-09
      5.58188102691924E-34  -1.12527732655160E-09   5.77035485549837E-18   0.00000000000000E+00   0.00000000000000E+00
      0.00000000000000E+00   0.00000000000000E+00   0.00000000000000E+00   0.00000000000000E+00   0.00000000000000E+00
      4.23007783431971E-18   0.00000000000000E+00   0.00000000000000E+00   0.00000000000000E+00   0.00000000000000E+00
     -1.43971414359424E-18  -7.72099556387881E-34  -1.43971414359424E-18  -1.53138984301501E-17   2.91941621813061E-02
      2.91941619653839E-02   0.00000000000000E+00   0.00000000000000E+00   1.12527732799132E-09   2.13911453695957E-34
      1.12527732799132E-09   5.31346574033208E-18
      3.81156366749421E-02
      0.00000000000000E+00   2.20460322718776E-10   0.00000000000000E+00   0.00000000000000E+00  -1.15379706981581E-09
      5.66179942197350E-34  -1.15379706981581E-09   5.76905325877191E-18   0.00000000000000E+00   0.00000000000000E+00
      0.00000000000000E+00   0.00000000000000E+00   0.00000000000000E+00   0.00000000000000E+00   0.00000000000000E+00
      4.18349824538496E-18   0.00000000000000E+00   0.00000000000000E+00   0.00000000000000E+00   0.00000000000000E+00
     -2.60637276008558E-18  -7.52464079188512E-34  -2.60637276008558E-18  -1.53128435797420E-17   3.27794475404502E-02
      3.27794473190848E-02   0.00000000000000E+00   0.00000000000000E+00   1.15379707242218E-09   1.86284136991161E-34
      1.15379707242218E-09   5.36029207558507E-18
      4.26736738757145E-02
      0.00000000000000E+00   2.24845500721603E-10   0.00000000000000E+00   0.00000000000000E+00  -1.17696252260506E-09
      5.81477178923810E-34  -1.17696252260506E-09   5.76763065380260E-18   0.00000000000000E+00   0.00000000000000E+00
      0.00000000000000E+00   0.00000000000000E+00   0.00000000000000E+00   0.00000000000000E+00   0.00000000000000E+00
      4.13259783279027E-18   0.00000000000000E+00   0.00000000000000E+00   0.00000000000000E+00   0.00000000000000E+00
     -4.14733178965581E-18  -7.51452369229479E-34  -4.14733178965581E-18  -1.53117698942833E-17   3.66993595331145E-02
      3.66993593073498E-02   0.00000000000000E+00   0.00000000000000E+00   1.17696252675239E-09   1.69975190305669E-34
      1.17696252675239E-09   5.41154140769046E-18
      4.76571278818923E-02
      0.00000000000000E+00   2.28432032999570E-10   0.00000000000000E+00   0.00000000000000E+00  -1.19603729059603E-09
      5.86328035892359E-34  -1.19603729059603E-09   5.76607579634780E-18   0.00000000000000E+00   0.00000000000000E+00
      0.00000000000000E+00   0.00000000000000E+00   0.00000000000000E+00   0.00000000000000E+00   0.00000000000000E+00
      4.07697658750360E-18   0.00000000000000E+00   0.00000000000000E+00   0.00000000000000E+00   0.00000000000000E+00
     -6.63279283810058E-18  -7.28891916571236E-34  -6.63279283810058E-18  -1.53106868701001E-17   4.09851299784274E-02
      4.09851297490682E-02   0.00000000000000E+00   0.00000000000000E+00   1.19603729722882E-09   1.42563880678877E-34
      1.19603729722882E-09   5.46763448624864E-18
      5.31057042619801E-02
      0.00000000000000E+00   2.31498539590471E-10   0.00000000000000E+00   0.00000000000000E+00  -1.21248571261866E-09
      5.68678485191246E-34  -1.21248571261866E-09   5.76437639518315E-18   0.00000000000000E+00   0.00000000000000E+00
      0.00000000000000E+00   0.00000000000000E+00   0.00000000000000E+00   0.00000000000000E+00   0.00000000000000E+00
      4.01619737804571E-18   0.00000000000000E+00   0.00000000000000E+00   0.00000000000000E+00   0.00000000000000E+00
     -9.68704055114774E-18  -6.94787038650387E-34  -9.68704055114774E-18  -1.53096060738443E-17   4.56709056653029E-02
      4.56709054328755E-02   0.00000000000000E+00   0.00000000000000E+00   1.21248572230570E-09   1.26108553459140E-34
      1.21248572230570E-09   5.52903230061539E-18
      5.90628144375427E-02
      0.00000000000000E+00   2.34331997618186E-10   0.00000000000000E+00   0.00000000000000E+00  -1.22781260012574E-09
      5.86960893559947E-34  -1.22781260012574E-09   5.76251901496023E-18   0.00000000000000E+00   0.00000000000000E+00
      0.00000000000000E+00   0.00000000000000E+00   0.00000000000000E+00   0.00000000000000E+00   0.00000000000000E+00
      3.94978246491485E-18   0.00000000000000E+00   0.00000000000000E+00   0.00000000000000E+00   0.00000000000000E+00
     -1.21916122803319E-17  -6.91081615525040E-34  -1.21916122803319E-17  -1.53085413743666E-17   5.07940204162867E-02
      5.07940201810310E-02   0.00000000000000E+00   0.00000000000000E+00   1.22781261231736E-09   1.04120721965092E-34
      1.22781261231736E-09   5.59623989449148E-18
      6.55759215628244E-02
      0.00000000000000E+00   2.37188447445116E-10   0.00000000000000E+00   0.00000000000000E+00  -1.24335675022775E-09
      5.85368152043971E-34  -1.24335675022775E-09   5.76048897092979E-18   0.00000000000000E+00   0.00000000000000E+00
      0.00000000000000E+00   0.00000000000000E+00   0.00000000000000E+00   0.00000000000000E+00   0.00000000000000E+00
      3.87720969910593E-18   0.00000000000000E+00   0.00000000000000E+00   0.00000000000000E+00   0.00000000000000E+00
     -3.23336589421245E-20  -6.70647675852512E-34  -3.23336589421252E-20  -1.53075091946476E-17   5.63952925440290E-02
      5.63952923059296E-02   0.00000000000000E+00   0.00000000000000E+00   1.24335675026008E-09   8.52795238085396E-35
      1.24335675026008E-09   5.66981052461185E-18
      7.26534979722973E-02
      0.00000000000000E+00   2.40232697779697E-10   0.00000000000000E+00   0.00000000000000E+00  -1.25997031142103E-09
      5.78667592977531E-34  -1.25997031142103E-09   5.75828374102308E-18   0.00000000000000E+00   0.00000000000000E+00
      0.00000000000000E+00   0.00000000000000E+00   0.00000000000000E+00   0.00000000000000E+00   0.00000000000000E+00
      3.79839178876252E-18   0.00000000000000E+00   0.00000000000000E+00   0.00000000000000E+00   0.00000000000000E+00
     -1.82373138681829E-19  -6.49393292205743E-34  -1.82373138681829E-19  -1.53065343134303E-17   6.24820082561757E-02
      6.24820080150517E-02   0.00000000000000E+00   0.00000000000000E+00   1.25997031160340E-09   7.07256992282115E-35
      1.25997031160340E-09   5.74985878364470E-18
      8.03444643372578E-02
      0.00000000000000E+00   2.43565120789740E-10   0.00000000000000E+00   0.00000000000000E+00  -1.27817280669825E-09
      5.78067219789322E-34  -1.27817280669825E-09   5.75588820528949E-18   0.00000000000000E+00   0.00000000000000E+00
      0.00000000000000E+00   0.00000000000000E+00   0.00000000000000E+00   0.00000000000000E+00   0.00000000000000E+00
      3.71279108146912E-18   0.00000000000000E+00   0.00000000000000E+00   0.00000000000000E+00   0.00000000000000E+00
     -1.98055931037584E-19  -6.31045784438967E-34  -1.98055931037585E-19  -1.53056371110914E-17   6.90962393300417E-02
      6.90962390856130E-02   0.00000000000000E+00   0.00000000000000E+00   1.27817280689630E-09   5.29785646496446E-35
      1.27817280689630E-09   5.83695782433276E-18
      8.87019811205149E-02
      0.00000000000000E+00   2.47241622445281E-10   0.00000000000000E+00   0.00000000000000E+00  -1.29826547272744E-09
      5.69548858622370E-34  -1.29826547272744E-09   5.75328593813293E-18   0.00000000000000E+00   0.00000000000000E+00
      0.00000000000000E+00   0.00000000000000E+00   0.00000000000000E+00   0.00000000000000E+00   0.00000000000000E+00
      3.61982341580373E-18   0.00000000000000E+00   0.00000000000000E+00   0.00000000000000E+00   0.00000000000000E+00
      2.74434884108055E-19  -6.14447640328558E-34   2.74434884108054E-19  -1.53048406483514E-17   7.62837037636428E-02
      7.62837035155748E-02   0.00000000000000E+00   0.00000000000000E+00   1.29826547245300E-09   4.48987817061879E-35
      1.29826547245300E-09   5.93173129441478E-18
      9.77838160249876E-02
      0.00000000000000E+00   2.51292312905167E-10   0.00000000000000E+00   0.00000000000000E+00  -1.32041497853822E-09
      5.57306849677342E-34  -1.32041497853822E-09   5.75045909822920E-18   0.00000000000000E+00   0.00000000000000E+00
      0.00000000000000E+00   0.00000000000000E+00   0.00000000000000E+00   0.00000000000000E+00   0.00000000000000E+00
      3.51885412638745E-18   0.00000000000000E+00   0.00000000000000E+00   0.00000000000000E+00   0.00000000000000E+00
     -3.51239663320025E-19  -5.90881980307974E-34  -3.51239663320025E-19  -1.53041708828750E-17   8.40940817814893E-02
      8.40940815294145E-02   0.00000000000000E+00   0.00000000000000E+00   1.32041497888946E-09   3.35751306306316E-35
      1.32041497888946E-09   6.03485765825837E-18
      1.07652743287848E-01
      0.00000000000000E+00   2.55728333642519E-10   0.00000000000000E+00   0.00000000000000E+00  -1.34468962576434E-09
      5.82912329733879E-34  -1.34468962576434E-09   5.74738830589939E-18   0.00000000000000E+00   0.00000000000000E+00
      0.00000000000000E+00   0.00000000000000E+00   0.00000000000000E+00   0.00000000000000E+00   0.00000000000000E+00
      3.40919366187121E-18   0.00000000000000E+00   0.00000000000000E+00   0.00000000000000E+00   0.00000000000000E+00
     -2.07415883424122E-19  -6.06419412482016E-34  -2.07415883424122E-19  -1.53036568239405E-17   9.25813592275492E-02
      9.25813589710868E-02   0.00000000000000E+00   0.00000000000000E+00   1.34468962597176E-09   2.35070827481362E-35
      1.34468962597176E-09   6.14707485616995E-18
      1.17652743287848E-01
      0.00000000000000E+00   2.60245654242251E-10   0.00000000000000E+00   0.00000000000000E+00  -1.36943693679718E-09
      5.79045272046538E-34  -1.36943693679718E-09   5.74427774291722E-18   0.00000000000000E+00   0.00000000000000E+00
      0.00000000000000E+00   0.00000000000000E+00   0.00000000000000E+00   0.00000000000000E+00   0.00000000000000E+00
      3.29813392199900E-18   0.00000000000000E+00   0.00000000000000E+00   0.00000000000000E+00   0.00000000000000E+00
     -1.99877100636118E-19  -5.96964714758162E-34  -1.99877100636119E-19  -1.53033453294297E-17   1.01181359227549E-01
      1.01181358966625E-01   0.00000000000000E+00   0.00000000000000E+00   1.36943693699706E-09   1.79194427116246E-35
      1.36943693699706E-09   6.26093366451342E-18
      1.27652743287848E-01
      0.00000000000000E+00   2.64791303840926E-10   0.00000000000000E+00   0.00000000000000E+00  -1.39436997899326E-09
      5.82470341773746E-34  -1.39436997899326E-09   5.74116811327206E-18   0.00000000000000E+00   0.00000000000000E+00
      0.00000000000000E+00   0.00000000000000E+00   0.00000000000000E+00   0.00000000000000E+00   0.00000000000000E+00
      3.18712618612225E-18   0.00000000000000E+00   0.00000000000000E+00   0.00000000000000E+00   0.00000000000000E+00
     -1.39619693996322E-19  -5.95675502492035E-34  -1.39619693996322E-19  -1.53032279586934E-17   1.09781359227549E-01
      1.09781358962145E-01   0.00000000000000E+00   0.00000000000000E+00   1.39436997913288E-09   1.32051607182886E-35
      1.39436997913288E-09   6.37493365929908E-18
      1.37652743287848E-01
      0.00000000000000E+00   2.69374689066629E-10   0.00000000000000E+00   0.00000000000000E+00  -1.41953841722597E-09
      5.71183499892176E-34  -1.41953841722597E-09   5.73805934176069E-18   0.00000000000000E+00   0.00000000000000E+00
      0.00000000000000E+00   0.00000000000000E+00   0.00000000000000E+00   0.00000000000000E+00   0.00000000000000E+00
      3.07616561473244E-18   0.00000000000000E+00   0.00000000000000E+00   0.00000000000000E+00   0.00000000000000E+00
     -7.01776796108898E-20  -5.80544063878599E-34  -7.01776796108904E-20  -1.53032896442018E-17   1.18381359227549E-01
      1.18381358957633E-01   0.00000000000000E+00   0.00000000000000E+00   1.41953841729615E-09   9.36056398642211E-36
      1.41953841729615E-09   6.48906468770865E-18
      1.47652743287848E-01
      0.00000000000000E+00   2.74002220996017E-10   0.00000000000000E+00   0.00000000000000E+00  -1.44497522338613E-09
      5.69915715966850E-34  -1.44497522338613E-09   5.73495136442806E-18   0.00000000000000E+00   0.00000000000000E+00
      0.00000000000000E+00   0.00000000000000E+00   0.00000000000000E+00   0.00000000000000E+00   0.00000000000000E+00
      2.96524801352993E-18   0.00000000000000E+00   0.00000000000000E+00   0.00000000000000E+00   0.00000000000000E+00
     -2.23318269369375E-19  -5.77518347576198E-34  -2.23318269369375E-19  -1.53035168137951E-17   1.26981359227549E-01
      1.26981358953073E-01   0.00000000000000E+00   0.00000000000000E+00   1.44497522360945E-09   7.60263160934724E-36
      1.44497522360945E-09   6.60331743583712E-18
      1.57652743287848E-01
      0.00000000000000E+00   2.78677066310028E-10   0.00000000000000E+00   0.00000000000000E+00  -1.47069645310040E-09
      5.67829621477091E-34  -1.47069645310040E-09   5.73184412421030E-18   0.00000000000000E+00   0.00000000000000E+00
      0.00000000000000E+00   0.00000000000000E+00   0.00000000000000E+00   0.00000000000000E+00   0.00000000000000E+00
      2.85436969448209E-18   0.00000000000000E+00   0.00000000000000E+00   0.00000000000000E+00   0.00000000000000E+00
     -1.09464810204780E-19  -5.73368386418823E-34  -1.09464810204780E-19  -1.53038971588627E-17   1.35581359227549E-01
      1.35581358948459E-01   0.00000000000000E+00   0.00000000000000E+00   1.47069645320986E-09   5.53876494173136E-36
      1.47069645320986E-09   6.71768334017030E-18
      1.67652743287848E-01
      0.00000000000000E+00   2.83400338135479E-10   0.00000000000000E+00   0.00000000000000E+00  -1.49670760238865E-09
      5.47618400746229E-34  -1.49670760238865E-09   5.72873756890571E-18   0.00000000000000E+00   0.00000000000000E+00
      0.00000000000000E+00   0.00000000000000E+00   0.00000000000000E+00   0.00000000000000E+00   0.00000000000000E+00
      2.74352737316038E-18   0.00000000000000E+00   0.00000000000000E+00   0.00000000000000E+00   0.00000000000000E+00
      9.85293421726053E-20  -5.51602526465542E-34   9.85293421726048E-20  -1.53044194544594E-17   1.44181359227549E-01
      1.44181358943793E-01   0.00000000000000E+00   0.00000000000000E+00   1.49670760229012E-09   3.98412571931194E-36
      1.49670760229012E-09   6.83215451239329E-18
      1.77652743287848E-01
      0.00000000000000E+00   2.88172047462336E-10   0.00000000000000E+00   0.00000000000000E+00  -1.52300861645059E-09
      5.81332271498543E-34  -1.52300861645059E-09   5.72563165063301E-18   0.00000000000000E+00   0.00000000000000E+00
      0.00000000000000E+00   0.00000000000000E+00   0.00000000000000E+00   0.00000000000000E+00   0.00000000000000E+00
      2.63271811020157E-18   0.00000000000000E+00   0.00000000000000E+00   0.00000000000000E+00   0.00000000000000E+00
     -4.34348959966304E-20  -5.84354511956763E-34  -4.34348959966310E-20  -1.53050734370532E-17   1.52781359227549E-01
      1.52781358939079E-01   0.00000000000000E+00   0.00000000000000E+00   1.52300861649403E-09   3.02224045821963E-36
      1.52300861649403E-09   6.94672367621857E-18
      1.87652743287848E-01
      0.00000000000000E+00   2.92991753906861E-10   0.00000000000000E+00   0.00000000000000E+00  -1.54959727429316E-09