DF-ISE text

Info {
  version   = 1.0
  type      = xyplot
  datasets  = [
    "time"
    "source OuterVoltage" "source InnerVoltage" "source QuasiFermiPotential" "source DisplacementCurrent" "source eCurrent"
    "source hCurrent" "source TotalCurrent" "source Charge" "gate OuterVoltage" "gate InnerVoltage"
    "gate QuasiFermiPotential" "gate DisplacementCurrent" "gate eCurrent" "gate hCurrent" "gate TotalCurrent"
    "gate Charge" "substrate OuterVoltage" "substrate InnerVoltage" "substrate QuasiFermiPotential" "substrate DisplacementCurrent"
    "substrate eCurrent" "substrate hCurrent" "substrate TotalCurrent" "substrate Charge" "drain OuterVoltage"
    "drain InnerVoltage" "drain QuasiFermiPotential" "drain DisplacementCurrent" "drain eCurrent" "drain hCurrent"
    "drain TotalCurrent" "drain Charge" ]
  functions = [
    Time
    OuterVoltage InnerVoltage QuasiFermiPotential DisplacementCurrent eCurrent
    hCurrent TotalCurrent Charge OuterVoltage InnerVoltage
    QuasiFermiPotential DisplacementCurrent eCurrent hCurrent TotalCurrent
    Charge OuterVoltage InnerVoltage QuasiFermiPotential DisplacementCurrent
    eCurrent hCurrent TotalCurrent Charge OuterVoltage
    InnerVoltage QuasiFermiPotential DisplacementCurrent eCurrent hCurrent
    TotalCurrent Charge ]
}

Data {
      0.00000000000000E+00
      0.00000000000000E+00   0.00000000000000E+00   0.00000000000000E+00   0.00000000000000E+00   8.61252346174033E-21
     -1.42114866313609E-34   8.61252346174019E-21   5.10588039311338E-18   0.00000000000000E+00   0.00000000000000E+00
      0.00000000000000E+00   0.00000000000000E+00   0.00000000000000E+00   0.00000000000000E+00   0.00000000000000E+00
      1.50152476589825E-18   0.00000000000000E+00   0.00000000000000E+00   0.00000000000000E+00   0.00000000000000E+00
     -1.75561490297143E-20   3.45159163199447E-34  -1.75561490297139E-20  -1.13177099138429E-17   0.00000000000000E+00
      0.00000000000000E+00   0.00000000000000E+00   0.00000000000000E+00   8.94362556797393E-21  -2.03044296885839E-34
      8.94362556797373E-21   4.71030475483127E-18
      0.00000000000000E+00
      0.00000000000000E+00   0.00000000000000E+00   0.00000000000000E+00   0.00000000000000E+00  -2.27128313876484E-19
     -1.35661945352691E-34  -2.27128313876484E-19   5.10408637708573E-18   0.00000000000000E+00   0.00000000000000E+00
      0.00000000000000E+00   0.00000000000000E+00   0.00000000000000E+00   0.00000000000000E+00   0.00000000000000E+00
      1.49638716300412E-18   0.00000000000000E+00   0.00000000000000E+00   0.00000000000000E+00   0.00000000000000E+00
      1.07489011208155E-19   3.18448832440745E-34   1.07489011208155E-19  -1.13092891896740E-17   0.00000000000000E+00
      0.00000000000000E+00   0.00000000000000E+00   0.00000000000000E+00   1.19639302668330E-19  -1.82786887088054E-34
      1.19639302668329E-19   4.70881564958413E-18
      1.00000000000000E-03
      0.00000000000000E+00   8.81007020760656E-11   0.00000000000000E+00   0.00000000000000E+00  -4.66537146066448E-10
     -1.38833600344174E-34  -4.66537146066448E-10   5.10356683613216E-18   0.00000000000000E+00   0.00000000000000E+00
      0.00000000000000E+00   0.00000000000000E+00   0.00000000000000E+00   0.00000000000000E+00   0.00000000000000E+00
      1.48379079409675E-18   0.00000000000000E+00   0.00000000000000E+00   0.00000000000000E+00   0.00000000000000E+00
      1.13390158358047E-19   3.27318816798305E-34   1.13390158358048E-19  -1.13084231308669E-17   8.60000000000000E-04
      8.59999911617536E-04   0.00000000000000E+00   0.00000000000000E+00   4.66537145953057E-10  -1.88485216454130E-34
      4.66537145953057E-10   4.72106550063793E-18
      2.08666666666667E-03
      0.00000000000000E+00   1.77727386419904E-10   0.00000000000000E+00   0.00000000000000E+00  -9.41135367473157E-10
     -1.81584866599503E-34  -9.41135367473157E-10   5.10300245865360E-18   0.00000000000000E+00   0.00000000000000E+00
      0.00000000000000E+00   0.00000000000000E+00   0.00000000000000E+00   0.00000000000000E+00   0.00000000000000E+00
      1.47010690869430E-18   0.00000000000000E+00   0.00000000000000E+00   0.00000000000000E+00   0.00000000000000E+00
      1.30036081753463E-19   3.53519003789306E-34   1.30036081753463E-19  -1.13074921120400E-17   1.79453333333333E-03
      1.79453315504011E-03   0.00000000000000E+00   0.00000000000000E+00   9.41135367343120E-10  -1.71934137189802E-34
      9.41135367343120E-10   4.73438274469208E-18
      3.27475555555556E-03
      0.00000000000000E+00   2.68563080442565E-10   0.00000000000000E+00   0.00000000000000E+00  -1.42210694618167E-09
     -1.24655992510230E-34  -1.42210694618167E-09   5.10238563121453E-18   0.00000000000000E+00   0.00000000000000E+00
      0.00000000000000E+00   0.00000000000000E+00   0.00000000000000E+00   0.00000000000000E+00   0.00000000000000E+00
      1.45515075897535E-18   0.00000000000000E+00   0.00000000000000E+00   0.00000000000000E+00   0.00000000000000E+00
     -2.45431380266043E-19   2.94967277212652E-34  -2.45431380266042E-19  -1.13064860982781E-17   2.81628977777778E-03
      2.81628950836366E-03   0.00000000000000E+00   0.00000000000000E+00   1.42210694642710E-09  -1.70311284702422E-34
      1.42210694642710E-09   4.74894970808816E-18
      4.57373274074074E-03
      0.00000000000000E+00   3.59731774780861E-10   0.00000000000000E+00   0.00000000000000E+00  -1.90480961082127E-09
     -1.70514472594849E-34  -1.90480961082127E-09   5.10171149918854E-18   0.00000000000000E+00   0.00000000000000E+00
      0.00000000000000E+00   0.00000000000000E+00   0.00000000000000E+00   0.00000000000000E+00   0.00000000000000E+00
      1.43880446733257E-18   0.00000000000000E+00   0.00000000000000E+00   0.00000000000000E+00   0.00000000000000E+00
      6.12788074125376E-19   3.27176449667037E-34   6.12788074125376E-19  -1.13054002411152E-17   3.93341015703704E-03
      3.93340979617094E-03   0.00000000000000E+00   0.00000000000000E+00   1.90480961020848E-09  -1.56661977072188E-34
      1.90480961020848E-09   4.76488427459414E-18
      5.99394779654321E-03
      0.00000000000000E+00   4.50301520886346E-10   0.00000000000000E+00   0.00000000000000E+00  -2.38430948499713E-09
     -1.67444830272338E-34  -2.38430948499713E-09   5.10097476115874E-18   0.00000000000000E+00   0.00000000000000E+00
      0.00000000000000E+00   0.00000000000000E+00   0.00000000000000E+00   0.00000000000000E+00   0.00000000000000E+00
      1.42093929815497E-18   0.00000000000000E+00   0.00000000000000E+00   0.00000000000000E+00   0.00000000000000E+00
      1.06359001230024E-19   3.16362488451056E-34   1.06359001230025E-19  -1.13042296099988E-17   5.15479510502716E-03
      5.15479465331326E-03   0.00000000000000E+00   0.00000000000000E+00   2.38430948489077E-09  -1.48917658178718E-34
      2.38430948489077E-09   4.78231555068506E-18
      7.54671625755391E-03
      0.00000000000000E+00   5.39287843221316E-10   0.00000000000000E+00   0.00000000000000E+00  -2.85539912108832E-09
     -1.76202857070684E-34  -2.85539912108832E-09   5.10016962811757E-18   0.00000000000000E+00   0.00000000000000E+00
      0.00000000000000E+00   0.00000000000000E+00   0.00000000000000E+00   0.00000000000000E+00   0.00000000000000E+00
      1.40141466461222E-18   0.00000000000000E+00   0.00000000000000E+00   0.00000000000000E+00   0.00000000000000E+00
      2.00984545079385E-20   3.27198958800652E-34   2.00984545079388E-20  -1.13029692419956E-17   6.49017598149636E-03
      6.49017544052648E-03   0.00000000000000E+00   0.00000000000000E+00   2.85539912106822E-09  -1.50996101729969E-34
      2.85539912106822E-09   4.80138494926580E-18
      9.24440977492561E-03
      0.00000000000000E+00   6.25671377548561E-10   0.00000000000000E+00   0.00000000000000E+00  -3.31269204428782E-09
     -1.68837060792894E-34  -3.31269204428782E-09   5.09928977884499E-18   0.00000000000000E+00   0.00000000000000E+00
      0.00000000000000E+00   0.00000000000000E+00   0.00000000000000E+00   0.00000000000000E+00   0.00000000000000E+00
      1.38007704551465E-18   0.00000000000000E+00   0.00000000000000E+00   0.00000000000000E+00   0.00000000000000E+00
      1.26089759307443E-19   3.13894897683493E-34   1.26089759307444E-19  -1.13016142041864E-17   7.95019240643603E-03
      7.95019177882464E-03   0.00000000000000E+00   0.00000000000000E+00   3.31269204416173E-09  -1.45057836890599E-34
      3.31269204416173E-09   4.82224737982682E-18
      1.11005546872520E-02
      0.00000000000000E+00   7.08427357192225E-10   0.00000000000000E+00   0.00000000000000E+00  -3.75077955257189E-09
     -1.57415745528387E-34  -3.75077955257189E-09   5.09832831109747E-18   0.00000000000000E+00   0.00000000000000E+00
      0.00000000000000E+00   0.00000000000000E+00   0.00000000000000E+00   0.00000000000000E+00   0.00000000000000E+00
      1.35675880159872E-18   0.00000000000000E+00   0.00000000000000E+00   0.00000000000000E+00   0.00000000000000E+00
     -3.55360429818367E-20   3.02474875516704E-34  -3.55360429818364E-20  -1.13001596678788E-17   9.54647703103672E-03
      9.54647632042651E-03   0.00000000000000E+00   0.00000000000000E+00   3.75077955260743E-09  -1.45059129988317E-34
      3.75077955260743E-09   4.84507255518260E-18
      1.31299397913955E-02
      0.00000000000000E+00   7.86563444869105E-10   0.00000000000000E+00   0.00000000000000E+00  -4.16443144700762E-09
     -1.85079694679050E-34  -4.16443144700762E-09   5.09727768826659E-18   0.00000000000000E+00   0.00000000000000E+00
      0.00000000000000E+00   0.00000000000000E+00   0.00000000000000E+00   0.00000000000000E+00   0.00000000000000E+00
      1.33127688398547E-18   0.00000000000000E+00   0.00000000000000E+00   0.00000000000000E+00   0.00000000000000E+00
      1.07987778854027E-19   3.10463324558227E-34   1.07987778854027E-19  -1.12986009991425E-17   1.12917482206002E-02
      1.12917474316293E-02   0.00000000000000E+00   0.00000000000000E+00   4.16443144689964E-09  -1.25383629879177E-34
      4.16443144689964E-09   4.87004642689040E-18
      1.53487341719258E-02
      0.00000000000000E+00   8.59165778063606E-10   0.00000000000000E+00   0.00000000000000E+00  -4.54884063385912E-09
     -1.41798441848363E-34  -4.54884063385912E-09   5.09612968095726E-18   0.00000000000000E+00   0.00000000000000E+00
      0.00000000000000E+00   0.00000000000000E+00   0.00000000000000E+00   0.00000000000000E+00   0.00000000000000E+00
      1.30343142281358E-18   0.00000000000000E+00   0.00000000000000E+00   0.00000000000000E+00   0.00000000000000E+00
     -1.62164051532925E-19   2.48660102954874E-34  -1.62164051532925E-19  -1.12969338653786E-17   1.31999113878562E-02
      1.31999105260795E-02   0.00000000000000E+00   0.00000000000000E+00   4.54884063402128E-09  -1.06861661106511E-34
      4.54884063402128E-09   4.89737276160774E-18
      1.77746160279722E-02
      0.00000000000000E+00   9.25452288177856E-10   0.00000000000000E+00   0.00000000000000E+00  -4.89990611470168E-09
     -1.59722782638837E-34  -4.89990611470168E-09   5.09487530293010E-18   0.00000000000000E+00   0.00000000000000E+00
      0.00000000000000E+00   0.00000000000000E+00   0.00000000000000E+00   0.00000000000000E+00   0.00000000000000E+00
      1.27300418327187E-18   0.00000000000000E+00   0.00000000000000E+00   0.00000000000000E+00   0.00000000000000E+00
     -6.76199875087270E-20   2.55976645033283E-34  -6.76199875087268E-20  -1.12951543575352E-17   1.52861697840561E-02
      1.52861688558129E-02   0.00000000000000E+00   0.00000000000000E+00   4.89990611476930E-09  -9.62538623944462E-35
      4.89990611476930E-09   4.92727487133324E-18
      2.04269135239163E-02
      0.00000000000000E+00   9.84832488175460E-10   0.00000000000000E+00   0.00000000000000E+00  -5.21454879098119E-09
     -1.93836464660543E-34  -5.21454879098119E-09   5.09350474088119E-18   0.00000000000000E+00   0.00000000000000E+00
      0.00000000000000E+00   0.00000000000000E+00   0.00000000000000E+00   0.00000000000000E+00   0.00000000000000E+00
      1.23975687517257E-18   0.00000000000000E+00   0.00000000000000E+00   0.00000000000000E+00   0.00000000000000E+00
      2.91078444184012E-21   3.05885702979425E-34   2.91078444184042E-21  -1.12932591277269E-17   1.75671456305680E-02
      1.75671446427901E-02   0.00000000000000E+00   0.00000000000000E+00   5.21454879097829E-09  -1.12049238318882E-34
      5.21454879097829E-09   4.95999751167317E-18
      2.33267587861485E-02
      0.00000000000000E+00   1.03696783999516E-09   0.00000000000000E+00   0.00000000000000E+00  -5.49103092098467E-09
     -1.41793175006180E-34  -5.49103092098467E-09   5.09200727730550E-18   0.00000000000000E+00   0.00000000000000E+00
      0.00000000000000E+00   0.00000000000000E+00   0.00000000000000E+00   0.00000000000000E+00   0.00000000000000E+00
      1.20342930302925E-18   0.00000000000000E+00   0.00000000000000E+00   0.00000000000000E+00   0.00000000000000E+00
     -2.22860155095762E-19   2.40935390368218E-34  -2.22860155095761E-19  -1.12912455470121E-17   2.00610125560877E-02
      2.00610115160470E-02   0.00000000000000E+00   0.00000000000000E+00   5.49103092120753E-09  -9.91422153620383E-35
      5.49103092120753E-09   4.99580896667728E-18
      2.64972562728556E-02
      0.00000000000000E+00   1.08183123795887E-09   0.00000000000000E+00   0.00000000000000E+00  -5.72927045635767E-09
     -1.85222752011448E-34  -5.72927045635767E-09   5.09037120576354E-18   0.00000000000000E+00   0.00000000000000E+00
      0.00000000000000E+00   0.00000000000000E+00   0.00000000000000E+00   0.00000000000000E+00   0.00000000000000E+00
      1.16373733788558E-18   0.00000000000000E+00   0.00000000000000E+00   0.00000000000000E+00   0.00000000000000E+00
      2.33215443158750E-19   2.73839133888820E-34   2.33215443158750E-19  -1.12891118789726E-17   2.27876403946559E-02
      2.27876393096520E-02   0.00000000000000E+00   0.00000000000000E+00   5.72927045612446E-09  -8.86163818773722E-35
      5.72927045612446E-09   5.03500333532347E-18
      2.99636668583222E-02
      0.00000000000000E+00   1.11975838114145E-09   0.00000000000000E+00   0.00000000000000E+00  -5.93111143632759E-09
     -1.69505032663001E-34  -5.93111143632759E-09   5.08858373740994E-18   0.00000000000000E+00   0.00000000000000E+00
      0.00000000000000E+00   0.00000000000000E+00   0.00000000000000E+00   0.00000000000000E+00   0.00000000000000E+00
      1.12037068349146E-18   0.00000000000000E+00   0.00000000000000E+00   0.00000000000000E+00   0.00000000000000E+00
     -2.46733651889646E-19   2.36955951712026E-34  -2.46733651889645E-19  -1.12868574560288E-17   2.57687534981571E-02
      2.57687523751545E-02   0.00000000000000E+00   0.00000000000000E+00   5.93111143657432E-09  -6.74509190490245E-35
      5.93111143657432E-09   5.07790303512745E-18
      3.37536090984323E-02
      0.00000000000000E+00   1.15147559166543E-09   0.00000000000000E+00   0.00000000000000E+00  -6.10047033200037E-09
     -1.57825054902718E-34  -6.10047033200037E-09   5.08663089846855E-18   0.00000000000000E+00   0.00000000000000E+00
      0.00000000000000E+00   0.00000000000000E+00   0.00000000000000E+00   0.00000000000000E+00   0.00000000000000E+00
      1.07299043182286E-18   0.00000000000000E+00   0.00000000000000E+00   0.00000000000000E+00   0.00000000000000E+00
      1.09440292049089E-20   2.29011983770394E-34   1.09440292049091E-20  -1.12844828794704E-17   2.90281038246517E-02
      2.90281026698903E-02   0.00000000000000E+00   0.00000000000000E+00   6.10047033198942E-09  -7.11869288676753E-35
      6.10047033198942E-09   5.12486154917903E-18
      3.78972792809526E-02
      0.00000000000000E+00   1.17810557713832E-09   0.00000000000000E+00   0.00000000000000E+00  -6.24335757062143E-09
     -1.79112846739439E-34  -6.24335757062143E-09   5.08449741708023E-18   0.00000000000000E+00   0.00000000000000E+00
      0.00000000000000E+00   0.00000000000000E+00   0.00000000000000E+00   0.00000000000000E+00   0.00000000000000E+00
      1.02122634978332E-18   0.00000000000000E+00   0.00000000000000E+00   0.00000000000000E+00   0.00000000000000E+00
     -5.43072104891426E-19   2.34022853762195E-34  -5.43072104891426E-19  -1.12819901956650E-17   3.25916601816192E-02
      3.25916590002163E-02   0.00000000000000E+00   0.00000000000000E+00   6.24335757116450E-09  -5.49100070227558E-35
      6.24335757116450E-09   5.17626642880147E-18
      4.24276920138415E-02
      0.00000000000000E+00   1.20111255424213E-09   0.00000000000000E+00   0.00000000000000E+00  -6.36758666207308E-09
     -1.70110423468879E-34  -6.36758666207308E-09   5.08216660029949E-18   0.00000000000000E+00   0.00000000000000E+00
      0.00000000000000E+00   0.00000000000000E+00   0.00000000000000E+00   0.00000000000000E+00   0.00000000000000E+00
      9.64673912248500E-19   0.00000000000000E+00   0.00000000000000E+00   0.00000000000000E+00   0.00000000000000E+00
      3.21673316173839E-19   2.12536014222888E-34   3.21673316173839E-19  -1.12793830932188E-17   3.64878151319037E-02
      3.64878139275141E-02   0.00000000000000E+00   0.00000000000000E+00   6.36758666175141E-09  -4.24255907540087E-35
      6.36758666175141E-09   5.23254258067074E-18
      4.73809432684667E-02
      0.00000000000000E+00   1.22216948224545E-09   0.00000000000000E+00   0.00000000000000E+00  -6.48207102762263E-09
     -1.46885494414031E-34  -6.48207102762263E-09   5.07962020188154E-18   0.00000000000000E+00   0.00000000000000E+00
      0.00000000000000E+00   0.00000000000000E+00   0.00000000000000E+00   0.00000000000000E+00   0.00000000000000E+00
      9.02891040004461E-19   0.00000000000000E+00   0.00000000000000E+00   0.00000000000000E+00   0.00000000000000E+00
      9.34282468307945E-20   1.94151529045105E-34   9.34282468307947E-20  -1.12766670995730E-17   4.07476112108814E-02
      4.07476099854869E-02   0.00000000000000E+00   0.00000000000000E+00   6.48207102752921E-09  -4.72660346310736E-35
      6.48207102752921E-09   5.29415585768703E-18
      5.27634762984928E-02
      0.00000000000000E+00   1.24281119331254E-09   0.00000000000000E+00   0.00000000000000E+00  -6.59495181608749E-09
     -1.39849232864354E-34  -6.59495181608749E-09   5.07685523688480E-18   0.00000000000000E+00   0.00000000000000E+00
      0.00000000000000E+00   0.00000000000000E+00   0.00000000000000E+00   0.00000000000000E+00   0.00000000000000E+00
      8.35805935364841E-19   0.00000000000000E+00   0.00000000000000E+00   0.00000000000000E+00   0.00000000000000E+00
     -9.01690395363147E-20   1.71942910601865E-34  -9.01690395363145E-20  -1.12738665018133E-17   4.53765896167038E-02
      4.53765883707511E-02   0.00000000000000E+00   0.00000000000000E+00   6.59495181617766E-09  -3.20936777375105E-35
      6.59495181617766E-09   5.36120532956370E-18
      5.86124955244545E-02
      0.00000000000000E+00   1.26444372212446E-09   0.00000000000000E+00   0.00000000000000E+00  -6.71367873939522E-09
     -1.50686771735932E-34  -6.71367873939522E-09   5.07385292515430E-18   0.00000000000000E+00   0.00000000000000E+00
      0.00000000000000E+00   0.00000000000000E+00   0.00000000000000E+00   0.00000000000000E+00   0.00000000000000E+00
      7.62963430418133E-19   0.00000000000000E+00   0.00000000000000E+00   0.00000000000000E+00   0.00000000000000E+00
      1.76987269819582E-19   1.82936373848864E-34   1.76987269819583E-19  -1.12709911098590E-17   5.04067461510308E-02
      5.04067448835615E-02   0.00000000000000E+00   0.00000000000000E+00   6.71367873921823E-09  -3.22496021129321E-35
      6.71367873921823E-09   5.43417475428663E-18
      6.49684297499995E-02
      0.00000000000000E+00   1.28812718492033E-09   0.00000000000000E+00   0.00000000000000E+00  -6.84388248547858E-09
     -1.69663313430033E-34  -6.84388248547858E-09   5.07059287309457E-18   0.00000000000000E+00   0.00000000000000E+00
      0.00000000000000E+00   0.00000000000000E+00   0.00000000000000E+00   0.00000000000000E+00   0.00000000000000E+00
      6.83868965982876E-19   0.00000000000000E+00   0.00000000000000E+00   0.00000000000000E+00   0.00000000000000E+00
     -5.14631497933474E-20   1.96089734692000E-34  -5.14631497933472E-20  -1.12680528932249E-17   5.58728495849995E-02
      5.58728482939981E-02   0.00000000000000E+00   0.00000000000000E+00   6.84388248553004E-09  -2.64264212619666E-35
      6.84388248553004E-09   5.51359105414749E-18
      7.18752116084250E-02
      0.00000000000000E+00   1.31453977226017E-09   0.00000000000000E+00   0.00000000000000E+00  -6.98920333668250E-09
     -1.59167126397225E-34  -6.98920333668250E-09   5.06705295188050E-18   0.00000000000000E+00   0.00000000000000E+00
      0.00000000000000E+00   0.00000000000000E+00   0.00000000000000E+00   0.00000000000000E+00   0.00000000000000E+00
      5.97985299644051E-19   0.00000000000000E+00   0.00000000000000E+00   0.00000000000000E+00   0.00000000000000E+00
     -2.01564288372502E-19   1.81411024201704E-34  -2.01564288372502E-19  -1.12650663653157E-17   6.18126819832455E-02
      6.18126806660256E-02   0.00000000000000E+00   0.00000000000000E+00   6.98920333688406E-09  -2.22438978044789E-35
      6.98920333688406E-09   5.60002811379121E-18
      7.93805812279142E-02
      0.00000000000000E+00   1.34396678669943E-09   0.00000000000000E+00   0.00000000000000E+00  -7.15119052515830E-09
     -1.55422121880960E-34  -7.15119052515830E-09   5.06320916541805E-18   0.00000000000000E+00   0.00000000000000E+00
      0.00000000000000E+00   0.00000000000000E+00   0.00000000000000E+00   0.00000000000000E+00   0.00000000000000E+00
      5.04728914636394E-19   0.00000000000000E+00   0.00000000000000E+00   0.00000000000000E+00   0.00000000000000E+00
     -4.45770232357014E-19   1.73154119582271E-34  -4.45770232357014E-19  -1.12620489700210E-17   6.82672998560062E-02
      6.82672985095969E-02   0.00000000000000E+00   0.00000000000000E+00   7.15119052560407E-09  -1.77319977013107E-35
      7.15119052560407E-09   5.69411088996655E-18
      8.75364162144257E-02
      0.00000000000000E+00   1.37652500964152E-09   0.00000000000000E+00   0.00000000000000E+00  -7.33052179815505E-09
     -1.51988871110061E-34  -7.33052179815505E-09   5.05903547790117E-18   0.00000000000000E+00   0.00000000000000E+00
      0.00000000000000E+00   0.00000000000000E+00   0.00000000000000E+00   0.00000000000000E+00   0.00000000000000E+00
      4.03465970050335E-19   0.00000000000000E+00   0.00000000000000E+00   0.00000000000000E+00   0.00000000000000E+00
      7.74098970459508E-21   1.66464919469957E-34   7.74098970459524E-21  -1.12590212743862E-17   7.52813179444061E-02
      7.52813165657143E-02   0.00000000000000E+00   0.00000000000000E+00   7.33052179814732E-09  -1.44760483598956E-35
      7.33052179814732E-09   5.79651982643469E-18
      9.63990902331015E-02
      0.00000000000000E+00   1.41241955416584E-09   0.00000000000000E+00   0.00000000000000E+00  -7.52841681030155E-09
     -1.40698919466978E-34  -7.52841681030155E-09   5.05450361976795E-18   0.00000000000000E+00   0.00000000000000E+00
      0.00000000000000E+00   0.00000000000000E+00   0.00000000000000E+00   0.00000000000000E+00   0.00000000000000E+00
      2.93507910012325E-19   0.00000000000000E+00   0.00000000000000E+00   0.00000000000000E+00   0.00000000000000E+00
      3.66450055218647E-20   1.49609488404034E-34   3.66450055218648E-20  -1.12560071522631E-17   8.29032176004673E-02
      8.29032161861988E-02   0.00000000000000E+00   0.00000000000000E+00   7.52841681026490E-09  -8.91056893705586E-36
      7.52841681026490E-09   5.90799562248285E-18
      1.06029862666729E-01
      0.00000000000000E+00   1.45201666920294E-09   0.00000000000000E+00   0.00000000000000E+00  -7.74699171542569E-09
     -1.64805343585461E-34  -7.74699171542569E-09   5.04958291273023E-18   0.00000000000000E+00   0.00000000000000E+00
      0.00000000000000E+00   0.00000000000000E+00   0.00000000000000E+00   0.00000000000000E+00   0.00000000000000E+00
      1.74106857206380E-19   0.00000000000000E+00   0.00000000000000E+00   0.00000000000000E+00   0.00000000000000E+00
     -1.91974071069235E-19   1.71607118717565E-34  -1.91974071069235E-19  -1.12530342073263E-17   9.11856818933871E-02
      9.11856804398969E-02   0.00000000000000E+00   0.00000000000000E+00   7.74699171561766E-09  -6.80177513210456E-36
      7.74699171561766E-09   6.02934443738968E-18
      1.16029862666729E-01
      0.00000000000000E+00   1.49387487702367E-09   0.00000000000000E+00   0.00000000000000E+00  -7.97834745306763E-09
     -1.56420485402797E-34  -7.97834745306763E-09   5.04447761197985E-18   0.00000000000000E+00   0.00000000000000E+00
      0.00000000000000E+00   0.00000000000000E+00   0.00000000000000E+00   0.00000000000000E+00   0.00000000000000E+00
      5.02149264692488E-20   0.00000000000000E+00   0.00000000000000E+00   0.00000000000000E+00   0.00000000000000E+00
     -1.33769382182965E-20   1.61783022773087E-34  -1.33769382182963E-20  -1.12502561627771E-17   9.97856818933871E-02
      9.97856803984614E-02   0.00000000000000E+00   0.00000000000000E+00   7.97834745308100E-09  -5.36253737028920E-36
      7.97834745308100E-09   6.15556362432796E-18
      1.26029862666729E-01
      0.00000000000000E+00   1.53662460858779E-09   0.00000000000000E+00   0.00000000000000E+00  -8.21492505680970E-09
     -1.77608378319983E-34  -8.21492505680970E-09   5.03937621872362E-18   0.00000000000000E+00   0.00000000000000E+00
      0.00000000000000E+00   0.00000000000000E+00   0.00000000000000E+00   0.00000000000000E+00   0.00000000000000E+00
     -7.35966546207803E-20   0.00000000000000E+00   0.00000000000000E+00   0.00000000000000E+00   0.00000000000000E+00
      1.23760195177569E-19   1.81398794275132E-34   1.23760195177570E-19  -1.12477696275065E-17   1.08385681893387E-01
      1.08385680356153E-01   0.00000000000000E+00   0.00000000000000E+00   8.21492505668595E-09  -3.79041595514855E-36
      8.21492505668595E-09   6.28199006340364E-18
      1.36029862666729E-01
      0.00000000000000E+00   1.58037418492233E-09   0.00000000000000E+00   0.00000000000000E+00  -8.45732018475839E-09
     -1.54452795728410E-34  -8.45732018475839E-09   5.03427852383323E-18   0.00000000000000E+00   0.00000000000000E+00
      0.00000000000000E+00   0.00000000000000E+00   0.00000000000000E+00   0.00000000000000E+00   0.00000000000000E+00
     -1.97335001252746E-19   0.00000000000000E+00   0.00000000000000E+00   0.00000000000000E+00   0.00000000000000E+00
      9.95173222237495E-20   1.57454149052866E-34   9.95173222237496E-20  -1.12455533894018E-17   1.16985681893387E-01
      1.16985680312858E-01   0.00000000000000E+00   0.00000000000000E+00   8.45732018465887E-09  -3.00135332445646E-36
      8.45732018465887E-09   6.40860986682133E-18
      1.46029862666729E-01
      0.00000000000000E+00   1.62518340351156E-09   0.00000000000000E+00   0.00000000000000E+00  -8.70586295056958E-09
     -1.18865107672631E-34  -8.70586295056958E-09   5.02918433630549E-18   0.00000000000000E+00   0.00000000000000E+00
      0.00000000000000E+00   0.00000000000000E+00   0.00000000000000E+00   0.00000000000000E+00   0.00000000000000E+00
     -3.21006298888350E-19   0.00000000000000E+00   0.00000000000000E+00   0.00000000000000E+00   0.00000000000000E+00
      2.77359957412409E-20   1.21183440388755E-34   2.77359957412411E-20  -1.12435882720104E-17   1.25585681893387E-01
      1.25585680268520E-01   0.00000000000000E+00   0.00000000000000E+00   8.70586295054185E-09  -2.31833271612387E-36
      8.70586295054185E-09   6.53541023459328E-18
      1.56029862666729E-01
      0.00000000000000E+00   1.67107218974320E-09   0.00000000000000E+00   0.00000000000000E+00  -8.96066426166114E-09
     -1.54256436020512E-34  -8.96066426166114E-09   5.02409348821503E-18   0.00000000000000E+00   0.00000000000000E+00
      0.00000000000000E+00   0.00000000000000E+00   0.00000000000000E+00   0.00000000000000E+00   0.00000000000000E+00
     -4.44615879790690E-19   0.00000000000000E+00   0.00000000000000E+00   0.00000000000000E+00   0.00000000000000E+00
      1.74654074759455E-19   1.55922221146612E-34   1.74654074759455E-19  -1.12418569665588E-17   1.34185681893387E-01
      1.34185680223118E-01   0.00000000000000E+00   0.00000000000000E+00   8.96066426148649E-09  -1.66578512609958E-36
      8.96066426148649E-09   6.66237935813448E-18
      1.66029862666729E-01
      0.00000000000000E+00   1.71803657215240E-09   0.00000000000000E+00   0.00000000000000E+00  -9.22170702730324E-09
     -1.59179589959413E-34  -9.22170702730324E-09   5.01900584141840E-18   0.00000000000000E+00   0.00000000000000E+00
      0.00000000000000E+00   0.00000000000000E+00   0.00000000000000E+00   0.00000000000000E+00   0.00000000000000E+00
     -5.68168260066686E-19   0.00000000000000E+00   0.00000000000000E+00   0.00000000000000E+00   0.00000000000000E+00
     -2.23386570328654E-19   1.60403689054634E-34  -2.23386570328654E-19  -1.12403439518463E-17   1.42785681893387E-01
      1.42785680176655E-01   0.00000000000000E+00   0.00000000000000E+00   9.22170702752663E-09  -1.22409909522174E-36
      9.22170702752663E-09   6.78950637049460E-18
      1.76029862666729E-01
      0.00000000000000E+00   1.76606804690055E-09   0.00000000000000E+00   0.00000000000000E+00  -9.48895502833477E-09
     -1.38696543129540E-34  -9.48895502833477E-09   5.01392127620801E-18   0.00000000000000E+00   0.00000000000000E+00
      0.00000000000000E+00   0.00000000000000E+00   0.00000000000000E+00   0.00000000000000E+00   0.00000000000000E+00
     -6.91667443603131E-19   0.00000000000000E+00   0.00000000000000E+00   0.00000000000000E+00   0.00000000000000E+00
      5.67960897655176E-20   1.39671468759636E-34   5.67960897655178E-20  -1.12390350540426E-17   1.51385681893387E-01
      1.51385680129146E-01   0.00000000000000E+00   0.00000000000000E+00   9.48895502827798E-09  -9.74925630096007E-37
      9.48895502827798E-09   6.91678122143780E-18
      1.86029862666729E-01
      0.00000000000000E+00   1.81516746273143E-09   0.00000000000000E+00   0.00000000000000E+00  -9.76242472579152E-09