DF-ISE text

Info {
  version   = 1.0
  type      = xyplot
  datasets  = [
    "time"
    "source OuterVoltage" "source InnerVoltage" "source QuasiFermiPotential" "source DisplacementCurrent" "source eCurrent"
    "source hCurrent" "source TotalCurrent" "source Charge" "gate OuterVoltage" "gate InnerVoltage"
    "gate QuasiFermiPotential" "gate DisplacementCurrent" "gate eCurrent" "gate hCurrent" "gate TotalCurrent"
    "gate Charge" "substrate OuterVoltage" "substrate InnerVoltage" "substrate QuasiFermiPotential" "substrate DisplacementCurrent"
    "substrate eCurrent" "substrate hCurrent" "substrate TotalCurrent" "substrate Charge" "drain OuterVoltage"
    "drain InnerVoltage" "drain QuasiFermiPotential" "drain DisplacementCurrent" "drain eCurrent" "drain hCurrent"
    "drain TotalCurrent" "drain Charge" ]
  functions = [
    Time
    OuterVoltage InnerVoltage QuasiFermiPotential DisplacementCurrent eCurrent
    hCurrent TotalCurrent Charge OuterVoltage InnerVoltage
    QuasiFermiPotential DisplacementCurrent eCurrent hCurrent TotalCurrent
    Charge OuterVoltage InnerVoltage QuasiFermiPotential DisplacementCurrent
    eCurrent hCurrent TotalCurrent Charge OuterVoltage
    InnerVoltage QuasiFermiPotential DisplacementCurrent eCurrent hCurrent
    TotalCurrent Charge ]
}

Data {
      0.00000000000000E+00
      0.00000000000000E+00   0.00000000000000E+00   0.00000000000000E+00   0.00000000000000E+00  -2.84669414515848E-21
     -1.11987348352970E-34  -2.84669414515860E-21   4.47111297443758E-18   0.00000000000000E+00   0.00000000000000E+00
      0.00000000000000E+00   0.00000000000000E+00   0.00000000000000E+00   0.00000000000000E+00   0.00000000000000E+00
      4.35891480368621E-18   0.00000000000000E+00   0.00000000000000E+00   0.00000000000000E+00   0.00000000000000E+00
      5.77238550152646E-21   2.16702612508305E-34   5.77238550152668E-21  -1.25973960287063E-17   0.00000000000000E+00
      0.00000000000000E+00   0.00000000000000E+00   0.00000000000000E+00  -2.92569135636798E-21  -1.04715264155335E-34
     -2.92569135636808E-21   3.76736825058254E-18
      0.00000000000000E+00
      0.00000000000000E+00   0.00000000000000E+00   0.00000000000000E+00   0.00000000000000E+00   7.65698791542209E-20
     -1.09852563354533E-34   7.65698791542208E-20   4.46977635806585E-18   0.00000000000000E+00   0.00000000000000E+00
      0.00000000000000E+00   0.00000000000000E+00   0.00000000000000E+00   0.00000000000000E+00   0.00000000000000E+00
      4.35309416151673E-18   0.00000000000000E+00   0.00000000000000E+00   0.00000000000000E+00   0.00000000000000E+00
     -2.70238293497857E-20   2.29770492394380E-34  -2.70238293497855E-20  -1.25891728506148E-17   0.00000000000000E+00
      0.00000000000000E+00   0.00000000000000E+00   0.00000000000000E+00  -4.95460498044353E-20  -1.19917929039847E-34
     -4.95460498044354E-20   3.76630233103220E-18
      1.00000000000000E-03
      0.00000000000000E+00   8.97666896040372E-13   0.00000000000000E+00   0.00000000000000E+00  -3.59930509593317E-12
     -1.01127225547569E-34  -3.59930509593317E-12   4.46976690940493E-18   0.00000000000000E+00   0.00000000000000E+00
      0.00000000000000E+00   0.00000000000000E+00   0.00000000000000E+00   0.00000000000000E+00   0.00000000000000E+00
      4.35254802463665E-18   0.00000000000000E+00   0.00000000000000E+00   0.00000000000000E+00   0.00000000000000E+00
     -1.74331390225801E-19   2.31956230109507E-34  -1.74331390225801E-19  -1.25891516556457E-17   5.00000000000000E-05
      4.99999990997925E-05   0.00000000000000E+00   0.00000000000000E+00   3.59930527026456E-12  -1.30829004561938E-34
      3.59930527026456E-12   3.76683672160410E-18
      2.09333333333333E-03
      0.00000000000000E+00   1.87624900556058E-12   0.00000000000000E+00   0.00000000000000E+00  -7.52303857373353E-12
     -9.93089360535097E-35  -7.52303857373353E-12   4.46975657897087E-18   0.00000000000000E+00   0.00000000000000E+00
      0.00000000000000E+00   0.00000000000000E+00   0.00000000000000E+00   0.00000000000000E+00   0.00000000000000E+00
      4.35195092220461E-18   0.00000000000000E+00   0.00000000000000E+00   0.00000000000000E+00   0.00000000000000E+00
     -1.01734474748829E-19   2.17879591141626E-34  -1.01734474748828E-19  -1.25891285010793E-17   1.04666666666667E-04
      1.04666664785118E-04   0.00000000000000E+00   0.00000000000000E+00   7.52303867546801E-12  -1.18570655088116E-34
      7.52303867546801E-12   3.76742099990381E-18
      3.29600000000000E-03
      0.00000000000000E+00   2.94912726083338E-12   0.00000000000000E+00   0.00000000000000E+00  -1.18248036997823E-11
     -1.02433229291196E-34  -1.18248036997823E-11   4.46974521561680E-18   0.00000000000000E+00   0.00000000000000E+00
      0.00000000000000E+00   0.00000000000000E+00   0.00000000000000E+00   0.00000000000000E+00   0.00000000000000E+00
      4.35129411823662E-18   0.00000000000000E+00   0.00000000000000E+00   0.00000000000000E+00   0.00000000000000E+00
      1.95420737074920E-19   2.32137589075049E-34   1.95420737074921E-19  -1.25891030534807E-17   1.64800000000000E-04
      1.64799997042561E-04   0.00000000000000E+00   0.00000000000000E+00   1.18248035043616E-11  -1.29704359783854E-34
      1.18248035043616E-11   3.76806371962739E-18
      4.61893333333333E-03
      0.00000000000000E+00   4.12487222602030E-12   0.00000000000000E+00   0.00000000000000E+00  -1.65390778634104E-11
     -8.12372536608082E-35  -1.65390778634104E-11   4.46973271607688E-18   0.00000000000000E+00   0.00000000000000E+00
      0.00000000000000E+00   0.00000000000000E+00   0.00000000000000E+00   0.00000000000000E+00   0.00000000000000E+00
      4.35057164439713E-18   0.00000000000000E+00   0.00000000000000E+00   0.00000000000000E+00   0.00000000000000E+00
     -1.29840804983469E-19   1.84055565113854E-34  -1.29840804983468E-19  -1.25890750882350E-17   2.30946666666667E-04
      2.30946662530155E-04   0.00000000000000E+00   0.00000000000000E+00   1.65390779932512E-11  -1.02818311453045E-34
      1.65390779932512E-11   3.76877072776100E-18
      6.07416000000000E-03
      0.00000000000000E+00   5.41281278860653E-12   0.00000000000000E+00   0.00000000000000E+00  -2.17031389816253E-11
     -1.04147825439050E-34  -2.17031389816253E-11   4.46971896676413E-18   0.00000000000000E+00   0.00000000000000E+00
      0.00000000000000E+00   0.00000000000000E+00   0.00000000000000E+00   0.00000000000000E+00   0.00000000000000E+00
      4.34977693589536E-18   0.00000000000000E+00   0.00000000000000E+00   0.00000000000000E+00   0.00000000000000E+00
     -1.57645485784795E-19   2.22612764791010E-34  -1.57645485784795E-19  -1.25890443592428E-17   3.03708000000000E-04
      3.03707994571919E-04   0.00000000000000E+00   0.00000000000000E+00   2.17031391392708E-11  -1.18464939351959E-34
      2.17031391392708E-11   3.76954845658326E-18
      7.67490933333333E-03
      0.00000000000000E+00   6.82296244191444E-12   0.00000000000000E+00   0.00000000000000E+00  -2.73571836657005E-11
     -9.29803707578554E-35  -2.73571836657005E-11   4.46970384273939E-18   0.00000000000000E+00   0.00000000000000E+00
      0.00000000000000E+00   0.00000000000000E+00   0.00000000000000E+00   0.00000000000000E+00   0.00000000000000E+00
      4.34890277191806E-18   0.00000000000000E+00   0.00000000000000E+00   0.00000000000000E+00   0.00000000000000E+00
      3.70615934306367E-22   1.87768413882306E-34   3.70615934306555E-22  -1.25890105969755E-17   3.83745466666667E-04
      3.83745459824463E-04   0.00000000000000E+00   0.00000000000000E+00   2.73571836653299E-11  -9.47880431244511E-35
      2.73571836653299E-11   3.77040398231803E-18
      9.43573360000000E-03
      0.00000000000000E+00   8.36611052559916E-12   0.00000000000000E+00   0.00000000000000E+00  -3.35444434054216E-11
     -9.20521636588995E-35  -3.35444434054216E-11   4.46968720657755E-18   0.00000000000000E+00   0.00000000000000E+00
      0.00000000000000E+00   0.00000000000000E+00   0.00000000000000E+00   0.00000000000000E+00   0.00000000000000E+00
      4.34794121012169E-18   0.00000000000000E+00   0.00000000000000E+00   0.00000000000000E+00   0.00000000000000E+00
     -1.14198540781144E-19   2.11653551234827E-34  -1.14198540781144E-19  -1.25889735063774E-17   4.71786680000000E-04
      4.71786671610296E-04   0.00000000000000E+00   0.00000000000000E+00   3.35444435196201E-11  -1.19601387575928E-34
      3.35444435196201E-11   3.77134508967814E-18
      1.13726402933333E-02
      0.00000000000000E+00   1.00538173917150E-11   0.00000000000000E+00   0.00000000000000E+00  -4.03112832918229E-11
     -9.97094719985100E-35  -4.03112832918229E-11   4.46966890712053E-18   0.00000000000000E+00   0.00000000000000E+00
      0.00000000000000E+00   0.00000000000000E+00   0.00000000000000E+00   0.00000000000000E+00   0.00000000000000E+00
      4.34688351459307E-18   0.00000000000000E+00   0.00000000000000E+00   0.00000000000000E+00   0.00000000000000E+00
      2.58892833275152E-20   2.23609381269339E-34   2.58892833275154E-20  -1.25889327646077E-17   5.68632014666667E-04
      5.68632004584503E-04   0.00000000000000E+00   0.00000000000000E+00   4.03112832659336E-11  -1.23899909270829E-34
      4.03112832659336E-11   3.77238034289415E-18
      1.35032376560000E-02
      0.00000000000000E+00   1.18984554931505E-11   0.00000000000000E+00   0.00000000000000E+00  -4.77072695136957E-11
     -1.00489782847716E-34  -4.77072695136957E-11   4.46964877810601E-18   0.00000000000000E+00   0.00000000000000E+00
      0.00000000000000E+00   0.00000000000000E+00   0.00000000000000E+00   0.00000000000000E+00   0.00000000000000E+00
      4.34572007662947E-18   0.00000000000000E+00   0.00000000000000E+00   0.00000000000000E+00   0.00000000000000E+00
     -6.84515955704440E-20   2.16423876703674E-34  -6.84515955704438E-20  -1.25888880186189E-17   6.75161882800000E-04
      6.75161870867986E-04   0.00000000000000E+00   0.00000000000000E+00   4.77072695821473E-11  -1.15934093855957E-34
      4.77072695821473E-11   3.77351916388337E-18
      1.58468947549333E-02
      0.00000000000000E+00   1.39131948818279E-11   0.00000000000000E+00   0.00000000000000E+00  -5.57852017851485E-11
     -9.48618621893251E-35  -5.57852017851485E-11   4.46962663665937E-18   0.00000000000000E+00   0.00000000000000E+00
      0.00000000000000E+00   0.00000000000000E+00   0.00000000000000E+00   0.00000000000000E+00   0.00000000000000E+00
      4.34444032762434E-18   0.00000000000000E+00   0.00000000000000E+00   0.00000000000000E+00   0.00000000000000E+00
     -9.20982345422982E-20   2.12715590250701E-34  -9.20982345422979E-20  -1.25888388825639E-17   7.92344737746667E-04
      7.92344723794216E-04   0.00000000000000E+00   0.00000000000000E+00   5.57852018772467E-11  -1.17853728061376E-34
      5.57852018772467E-11   3.77477191828031E-18
      1.84249175637600E-02
      0.00000000000000E+00   1.61120231486788E-11   0.00000000000000E+00   0.00000000000000E+00  -6.46010840892186E-11
     -1.19377739296624E-34  -6.46010840892186E-11   4.46960228163534E-18   0.00000000000000E+00   0.00000000000000E+00
      0.00000000000000E+00   0.00000000000000E+00   0.00000000000000E+00   0.00000000000000E+00   0.00000000000000E+00
      4.34303264327850E-18   0.00000000000000E+00   0.00000000000000E+00   0.00000000000000E+00   0.00000000000000E+00
      3.97930242980184E-19   2.30519849123515E-34   3.97930242980184E-19  -1.25887849350387E-17   9.21245878188001E-04
      9.21245862030538E-04   0.00000000000000E+00   0.00000000000000E+00   6.46010836912884E-11  -1.11142109826891E-34
      6.46010836912884E-11   3.77615001012484E-18
      2.12607426534693E-02
      0.00000000000000E+00   1.85096916461339E-11   0.00000000000000E+00   0.00000000000000E+00  -7.42140446580047E-11
     -9.48006862892586E-35  -7.42140446580047E-11   4.46957549179441E-18   0.00000000000000E+00   0.00000000000000E+00
      0.00000000000000E+00   0.00000000000000E+00   0.00000000000000E+00   0.00000000000000E+00   0.00000000000000E+00
      4.34148423826652E-18   0.00000000000000E+00   0.00000000000000E+00   0.00000000000000E+00   0.00000000000000E+00
      3.94467740706746E-19   2.14414370384225E-34   3.94467740706746E-19  -1.25887257161435E-17   1.06303713267347E-03
      1.06303711411159E-03   0.00000000000000E+00   0.00000000000000E+00   7.42140442635370E-11  -1.19613684094967E-34
      7.42140442635370E-11   3.77766598608261E-18
      2.43801502521496E-02
      0.00000000000000E+00   2.11216695657540E-11   0.00000000000000E+00   0.00000000000000E+00  -8.46861904565722E-11
     -9.74886944635586E-35  -8.46861904565722E-11   4.46954602379731E-18   0.00000000000000E+00   0.00000000000000E+00
      0.00000000000000E+00   0.00000000000000E+00   0.00000000000000E+00   0.00000000000000E+00   0.00000000000000E+00
      4.33978105041313E-18   0.00000000000000E+00   0.00000000000000E+00   0.00000000000000E+00   0.00000000000000E+00
      3.50908248564911E-19   1.93294706521340E-34   3.50908248564911E-19  -1.25886607243748E-17   1.21900751260748E-03
      1.21900749142625E-03   0.00000000000000E+00   0.00000000000000E+00   8.46861901056640E-11  -9.58060120577814E-35
      8.46861901056640E-11   3.77933365016441E-18
      2.78114986106979E-02
      0.00000000000000E+00   2.39641729418314E-11   0.00000000000000E+00   0.00000000000000E+00  -9.60823066924442E-11
     -1.02965387114920E-34  -9.60823066924442E-11   4.46951361000026E-18   0.00000000000000E+00   0.00000000000000E+00
      0.00000000000000E+00   0.00000000000000E+00   0.00000000000000E+00   0.00000000000000E+00   0.00000000000000E+00
      4.33790761336388E-18   0.00000000000000E+00   0.00000000000000E+00   0.00000000000000E+00   0.00000000000000E+00
      6.06985917624966E-19   2.18193655376900E-34   6.06985917624967E-19  -1.25885894133793E-17   1.39057493053490E-03
      1.39057490650317E-03   0.00000000000000E+00   0.00000000000000E+00   9.60823060854582E-11  -1.15228268261979E-34
      9.60823060854582E-11   3.78116819001521E-18
      3.15859818051010E-02
      0.00000000000000E+00   2.70539229547132E-11   0.00000000000000E+00   0.00000000000000E+00  -1.08469472049619E-10
     -1.03201197336624E-34  -1.08469472049619E-10   4.46947795603030E-18   0.00000000000000E+00   0.00000000000000E+00
      0.00000000000000E+00   0.00000000000000E+00   0.00000000000000E+00   0.00000000000000E+00   0.00000000000000E+00
      4.33584691657580E-18   0.00000000000000E+00   0.00000000000000E+00   0.00000000000000E+00   0.00000000000000E+00
      8.51576354496975E-19   2.08409312627281E-34   8.51576354496975E-19  -1.25885111885471E-17   1.57929909025505E-03
      1.57929906312487E-03   0.00000000000000E+00   0.00000000000000E+00   1.08469471198042E-10  -1.05208115290656E-34
      1.08469471198042E-10   3.78318631594100E-18
      3.57379133189445E-02
      0.00000000000000E+00   3.04080969872239E-11   0.00000000000000E+00   0.00000000000000E+00  -1.21916513575759E-10
     -1.13652028943506E-34  -1.21916513575759E-10   4.46943873811952E-18   0.00000000000000E+00   0.00000000000000E+00
      0.00000000000000E+00   0.00000000000000E+00   0.00000000000000E+00   0.00000000000000E+00   0.00000000000000E+00
      4.33358025139355E-18   0.00000000000000E+00   0.00000000000000E+00   0.00000000000000E+00   0.00000000000000E+00
      1.39857129213347E-18   2.10507997500819E-34   1.39857129213347E-18  -1.25884254034872E-17   1.78689566594722E-03
      1.78689563545342E-03   0.00000000000000E+00   0.00000000000000E+00   1.21916512177188E-10  -9.68559685573133E-35
      1.21916512177188E-10   3.78540641397414E-18
      4.03050379841723E-02
      0.00000000000000E+00   3.40441503733665E-11   0.00000000000000E+00   0.00000000000000E+00  -1.36493280782093E-10
     -1.01359392784371E-34  -1.36493280782093E-10   4.46939560017400E-18   0.00000000000000E+00   0.00000000000000E+00
      0.00000000000000E+00   0.00000000000000E+00   0.00000000000000E+00   0.00000000000000E+00   0.00000000000000E+00
      4.33108704183083E-18   0.00000000000000E+00   0.00000000000000E+00   0.00000000000000E+00   0.00000000000000E+00
      2.06973189396960E-18   2.02810150222733E-34   2.06973189396960E-18  -1.25883313564117E-17   2.01525189920861E-03
      2.01525186506851E-03   0.00000000000000E+00   0.00000000000000E+00   1.36493278712361E-10  -1.01450757438362E-34
      1.36493278712361E-10   3.78784871440685E-18
      4.53288751159228E-02
      0.00000000000000E+00   3.79795529489446E-11   0.00000000000000E+00   0.00000000000000E+00  -1.52269707400468E-10
     -1.06212745553208E-34  -1.52269707400468E-10   4.46934815055136E-18   0.00000000000000E+00   0.00000000000000E+00
      0.00000000000000E+00   0.00000000000000E+00   0.00000000000000E+00   0.00000000000000E+00   0.00000000000000E+00
      4.32834465854660E-18   0.00000000000000E+00   0.00000000000000E+00   0.00000000000000E+00   0.00000000000000E+00
      3.13117704400559E-18   2.20350207140553E-34   3.13117704400559E-18  -1.25882282864697E-17   2.26644375579614E-03
      2.26644371770956E-03   0.00000000000000E+00   0.00000000000000E+00   1.52269704269291E-10  -1.14137461587345E-34
      1.52269704269291E-10   3.79053547737172E-18
      5.08550959608485E-02
      0.00000000000000E+00   4.22314935773749E-11   0.00000000000000E+00   0.00000000000000E+00  -1.69314626604558E-10
     -8.13179369621245E-35  -1.69314626604558E-10   4.46929595851800E-18   0.00000000000000E+00   0.00000000000000E+00
      0.00000000000000E+00   0.00000000000000E+00   0.00000000000000E+00   0.00000000000000E+00   0.00000000000000E+00
      4.32532821435714E-18   0.00000000000000E+00   0.00000000000000E+00   0.00000000000000E+00   0.00000000000000E+00
      4.68076696585313E-18   1.95952391106251E-34   4.68076696585313E-18  -1.25881153700868E-17   2.54275479804242E-03
      2.54275475569193E-03   0.00000000000000E+00   0.00000000000000E+00   1.69314621923791E-10  -1.14634454144127E-34
      1.69314621923791E-10   3.79349119721174E-18
      5.69339388902666E-02
      0.00000000000000E+00   4.68165381488896E-11   0.00000000000000E+00   0.00000000000000E+00  -1.87694302817935E-10
     -1.10667907001305E-34  -1.87694302817935E-10   4.46923855035425E-18   0.00000000000000E+00   0.00000000000000E+00
      0.00000000000000E+00   0.00000000000000E+00   0.00000000000000E+00   0.00000000000000E+00   0.00000000000000E+00
      4.32201033946313E-18   0.00000000000000E+00   0.00000000000000E+00   0.00000000000000E+00   0.00000000000000E+00
      6.81036386568621E-18   2.09262061336584E-34   6.81036386568621E-18  -1.25879917173815E-17   2.84669694451333E-03
      2.84669689756487E-03   0.00000000000000E+00   0.00000000000000E+00   1.87694296007571E-10  -9.85941543352792E-35
      1.87694296007571E-10   3.79674282756412E-18
      6.36206661126266E-02
      0.00000000000000E+00   5.17501763992669E-11   0.00000000000000E+00   0.00000000000000E+00  -2.07470682159368E-10
     -7.63302926979912E-35  -2.07470682159368E-10   4.46917540507287E-18   0.00000000000000E+00   0.00000000000000E+00
      0.00000000000000E+00   0.00000000000000E+00   0.00000000000000E+00   0.00000000000000E+00   0.00000000000000E+00
      4.31836093439386E-18   0.00000000000000E+00   0.00000000000000E+00   0.00000000000000E+00   0.00000000000000E+00
      4.92507421674323E-17   1.90941136804251E-34   4.92507421674323E-17  -1.25878563687495E-17   3.18103330563133E-03
      3.18103325373534E-03   0.00000000000000E+00   0.00000000000000E+00   2.07470632908626E-10  -1.14610844106259E-34
      2.07470632908626E-10   3.80032002928272E-18
      7.09760660572226E-02
      0.00000000000000E+00   5.70462750711002E-11   0.00000000000000E+00   0.00000000000000E+00  -2.28699053648080E-10
     -1.03235771950635E-34  -2.28699053648080E-10   4.46910594971244E-18   0.00000000000000E+00   0.00000000000000E+00
      0.00000000000000E+00   0.00000000000000E+00   0.00000000000000E+00   0.00000000000000E+00   0.00000000000000E+00
      4.31434689847420E-18   0.00000000000000E+00   0.00000000000000E+00   0.00000000000000E+00   0.00000000000000E+00
      1.51943562974537E-17   2.04262553384704E-34   1.51943562974537E-17  -1.25877082917328E-17   3.54880330286113E-03
      3.54880324565412E-03   0.00000000000000E+00   0.00000000000000E+00   2.28699038453723E-10  -1.01026781434070E-34
      2.28699038453723E-10   3.80425544354618E-18
      7.90670059962782E-02
      0.00000000000000E+00   6.27164440642625E-11   0.00000000000000E+00   0.00000000000000E+00  -2.51425910287368E-10
     -9.34280666049922E-35  -2.51425910287368E-10   4.46902955416370E-18   0.00000000000000E+00   0.00000000000000E+00
      0.00000000000000E+00   0.00000000000000E+00   0.00000000000000E+00   0.00000000000000E+00   0.00000000000000E+00
      4.30993183140832E-18   0.00000000000000E+00   0.00000000000000E+00   0.00000000000000E+00   0.00000000000000E+00
      2.21634522257536E-17   2.15933778113808E-34   2.21634522257536E-17  -1.25875463783173E-17   3.95335029981391E-03
      3.95335023692076E-03   0.00000000000000E+00   0.00000000000000E+00   2.51425888123916E-10  -1.22505711508816E-34
      2.51425888123916E-10   3.80858499274535E-18
      8.79670399292394E-02
      0.00000000000000E+00   6.87693409537190E-11   0.00000000000000E+00   0.00000000000000E+00  -2.75685620568160E-10
     -1.04761358751213E-34  -2.75685620568160E-10   4.46894552548297E-18   0.00000000000000E+00   0.00000000000000E+00
      0.00000000000000E+00   0.00000000000000E+00   0.00000000000000E+00   0.00000000000000E+00   0.00000000000000E+00
      4.30507570533801E-18   0.00000000000000E+00   0.00000000000000E+00   0.00000000000000E+00   0.00000000000000E+00
      3.28290889742301E-17   1.96998126719914E-34   3.28290889742301E-17  -1.25873694428354E-17   4.39835199646197E-03
      4.39835192749886E-03   0.00000000000000E+00   0.00000000000000E+00   2.75685587739070E-10  -9.22367679687009E-35
      2.75685587739070E-10   3.81334821201443E-18
      9.77570772554967E-02
      0.00000000000000E+00   7.52097748990977E-11   0.00000000000000E+00   0.00000000000000E+00  -3.01497239051066E-10
     -7.72434666898511E-35  -3.01497239051066E-10   4.46885310164190E-18   0.00000000000000E+00   0.00000000000000E+00
      0.00000000000000E+00   0.00000000000000E+00   0.00000000000000E+00   0.00000000000000E+00   0.00000000000000E+00
      4.29973450449880E-18   0.00000000000000E+00   0.00000000000000E+00   0.00000000000000E+00   0.00000000000000E+00
      8.72971870138675E-17   1.70677036410937E-34   8.72971870138675E-17  -1.25871762207191E-17   4.88785386277484E-03
      4.88785378735314E-03   0.00000000000000E+00   0.00000000000000E+00   3.01497151753879E-10  -9.34335697210856E-35
      3.01497151753879E-10   3.81858861457844E-18
      1.07757077255497E-01
      0.00000000000000E+00   8.15589743913778E-11   0.00000000000000E+00   0.00000000000000E+00  -3.26941710449663E-10
     -1.00450114759232E-34  -3.26941710449663E-10   4.46875870388799E-18   0.00000000000000E+00   0.00000000000000E+00
      0.00000000000000E+00   0.00000000000000E+00   0.00000000000000E+00   0.00000000000000E+00   0.00000000000000E+00
      4.29427933044153E-18   0.00000000000000E+00   0.00000000000000E+00   0.00000000000000E+00   0.00000000000000E+00
      5.21411948659329E-17   1.95915216793387E-34   5.21411948659329E-17  -1.25869803671567E-17   5.38785386277483E-03
      5.38785378098603E-03   0.00000000000000E+00   0.00000000000000E+00   3.26941658308469E-10  -9.54651020341554E-35
      3.26941658308469E-10   3.82394233282721E-18
      1.17757077255497E-01
      0.00000000000000E+00   8.76828279869858E-11   0.00000000000000E+00   0.00000000000000E+00  -3.51481734117164E-10
     -9.75884444168227E-35  -3.51481734117164E-10   4.46866431440390E-18   0.00000000000000E+00   0.00000000000000E+00
      0.00000000000000E+00   0.00000000000000E+00   0.00000000000000E+00   0.00000000000000E+00   0.00000000000000E+00
      4.28882473503353E-18   0.00000000000000E+00   0.00000000000000E+00   0.00000000000000E+00   0.00000000000000E+00
      5.59642683287150E-17   1.95207570343195E-34   5.59642683287150E-17  -1.25867860326303E-17   5.88785386277483E-03
      5.88785377484490E-03   0.00000000000000E+00   0.00000000000000E+00   3.51481678152895E-10  -9.76191259263726E-35
      3.51481678152895E-10   3.82929698319284E-18
      1.27757077255497E-01
      0.00000000000000E+00   9.35877883829521E-11   0.00000000000000E+00   0.00000000000000E+00  -3.75143248731910E-10
     -9.25671498294643E-35  -3.75143248731910E-10   4.46856993310991E-18   0.00000000000000E+00   0.00000000000000E+00
      0.00000000000000E+00   0.00000000000000E+00   0.00000000000000E+00   0.00000000000000E+00   0.00000000000000E+00
      4.28337071361460E-18   0.00000000000000E+00   0.00000000000000E+00   0.00000000000000E+00   0.00000000000000E+00
      5.49855606133377E-17   1.96807265587753E-34   5.49855606133377E-17  -1.25865932076261E-17   6.38785386277483E-03
      6.38785376892326E-03   0.00000000000000E+00   0.00000000000000E+00   3.75143193746350E-10  -1.04240115758289E-34
      3.75143193746350E-10   3.83465256090159E-18
      1.37757077255497E-01
      0.00000000000000E+00   9.92802502691048E-11   0.00000000000000E+00   0.00000000000000E+00  -3.97951997600367E-10
     -8.70627096638783E-35  -3.97951997600367E-10   4.46847555992624E-18   0.00000000000000E+00   0.00000000000000E+00
      0.00000000000000E+00   0.00000000000000E+00   0.00000000000000E+00   0.00000000000000E+00   0.00000000000000E+00
      4.27791726156561E-18   0.00000000000000E+00   0.00000000000000E+00   0.00000000000000E+00   0.00000000000000E+00
      5.42490067130120E-17   1.83792750374278E-34   5.42490067130120E-17  -1.25864018827001E-17   6.88785386277483E-03
      6.88785376321471E-03   0.00000000000000E+00   0.00000000000000E+00   3.97951943351361E-10  -9.67300407103995E-35
      3.97951943351361E-10   3.84000906120821E-18
      1.47757077255497E-01
      0.00000000000000E+00   1.04766537638994E-10   0.00000000000000E+00   0.00000000000000E+00  -4.19933406098676E-10
     -9.19662915982897E-35  -4.19933406098676E-10   4.46838119477326E-18   0.00000000000000E+00   0.00000000000000E+00
      0.00000000000000E+00   0.00000000000000E+00   0.00000000000000E+00   0.00000000000000E+00   0.00000000000000E+00
      4.27246437431119E-18   0.00000000000000E+00   0.00000000000000E+00   0.00000000000000E+00   0.00000000000000E+00
      5.35611190038168E-17   1.79231956033288E-34   5.35611190038168E-17  -1.25862120484818E-17   7.38785386277483E-03
      7.38785375771290E-03   0.00000000000000E+00   0.00000000000000E+00   4.19933352537557E-10  -8.72656644349983E-35
      4.19933352537557E-10   3.84536647939735E-18
      1.57757077255497E-01
      0.00000000000000E+00   1.10052879015982E-10   0.00000000000000E+00   0.00000000000000E+00  -4.41112531823827E-10
     -8.46178429221069E-35  -4.41112531823827E-10   4.46828683757137E-18   0.00000000000000E+00   0.00000000000000E+00
      0.00000000000000E+00   0.00000000000000E+00   0.00000000000000E+00   0.00000000000000E+00   0.00000000000000E+00
      4.26701204730989E-18   0.00000000000000E+00   0.00000000000000E+00   0.00000000000000E+00   0.00000000000000E+00
      5.26329792795292E-17   1.66770383032124E-34   5.26329792795292E-17  -1.25860236956600E-17   7.88785386277484E-03
      7.88785375241158E-03   0.00000000000000E+00   0.00000000000000E+00   4.41112479190848E-10  -8.21525401100176E-35
      4.41112479190848E-10   3.85072481077876E-18
      1.67757077255497E-01
      0.00000000000000E+00   1.15145388721753E-10   0.00000000000000E+00   0.00000000000000E+00  -4.61514010173427E-10
     -1.09423377567429E-34  -4.61514010173427E-10   4.46819248824116E-18   0.00000000000000E+00   0.00000000000000E+00
      0.00000000000000E+00   0.00000000000000E+00   0.00000000000000E+00   0.00000000000000E+00   0.00000000000000E+00
      4.26156027606110E-18   0.00000000000000E+00   0.00000000000000E+00   0.00000000000000E+00   0.00000000000000E+00
      5.19601806782451E-17   1.85324385299291E-34   5.19601806782451E-17  -1.25858368149928E-17   8.38785386277484E-03
      8.38785374730462E-03   0.00000000000000E+00   0.00000000000000E+00   4.61513958213247E-10  -7.59010077318612E-35
      4.61513958213247E-10   3.85608405069056E-18
      1.77757077255497E-01
      0.00000000000000E+00   1.20050063250858E-10   0.00000000000000E+00   0.00000000000000E+00  -4.81161902128854E-10
     -1.06753812794992E-34  -4.81161902128854E-10   4.46809814670441E-18   0.00000000000000E+00   0.00000000000000E+00
      0.00000000000000E+00   0.00000000000000E+00   0.00000000000000E+00   0.00000000000000E+00   0.00000000000000E+00
      4.25610905617646E-18   0.00000000000000E+00   0.00000000000000E+00   0.00000000000000E+00   0.00000000000000E+00
      4.86260255084753E-17   1.95504489129397E-34   4.86260255084753E-17  -1.25856513974018E-17   8.88785386277484E-03
      8.88785374238601E-03   0.00000000000000E+00   0.00000000000000E+00   4.81161853502828E-10  -8.87506763344049E-35
      4.81161853502828E-10   3.86144419452090E-18
      1.87757077255497E-01
      0.00000000000000E+00   1.24772769185888E-10   0.00000000000000E+00   0.00000000000000E+00  -5.00079856879323E-10
     -7.75270682050162E-35  -5.00079856879323E-10   4.46800381288255E-18   0.00000000000000E+00   0.00000000000000E+00
      0.00000000000000E+00   0.00000000000000E+00   0.00000000000000E+00   0.00000000000000E+00   0.00000000000000E+00
      4.25065838326102E-18   0.00000000000000E+00   0.00000000000000E+00   0.00000000000000E+00   0.00000000000000E+00
      5.05101645162684E-17   1.63273605668085E-34   5.05101645162684E-17  -1.25854674338107E-17   9.38785386277484E-03
      9.38785373764988E-03   0.00000000000000E+00   0.00000000000000E+00   5.00079806369159E-10  -8.57465374630691E-35
      5.00079806369159E-10   3.86680523766713E-18
      1.97757077255497E-01
      0.00000000000000E+00   1.29319315706471E-10   0.00000000000000E+00   0.00000000000000E+00  -5.18291231607161E-10