DF-ISE text

Info {
  version   = 1.0
  type      = xyplot
  datasets  = [
    "time"
    "source OuterVoltage" "source InnerVoltage" "source QuasiFermiPotential" "source DisplacementCurrent" "source eCurrent"
    "source hCurrent" "source TotalCurrent" "source Charge" "gate OuterVoltage" "gate InnerVoltage"
    "gate QuasiFermiPotential" "gate DisplacementCurrent" "gate eCurrent" "gate hCurrent" "gate TotalCurrent"
    "gate Charge" "substrate OuterVoltage" "substrate InnerVoltage" "substrate QuasiFermiPotential" "substrate DisplacementCurrent"
    "substrate eCurrent" "substrate hCurrent" "substrate TotalCurrent" "substrate Charge" "drain OuterVoltage"
    "drain InnerVoltage" "drain QuasiFermiPotential" "drain DisplacementCurrent" "drain eCurrent" "drain hCurrent"
    "drain TotalCurrent" "drain Charge" ]
  functions = [
    Time
    OuterVoltage InnerVoltage QuasiFermiPotential DisplacementCurrent eCurrent
    hCurrent TotalCurrent Charge OuterVoltage InnerVoltage
    QuasiFermiPotential DisplacementCurrent eCurrent hCurrent TotalCurrent
    Charge OuterVoltage InnerVoltage QuasiFermiPotential DisplacementCurrent
    eCurrent hCurrent TotalCurrent Charge OuterVoltage
    InnerVoltage QuasiFermiPotential DisplacementCurrent eCurrent hCurrent
    TotalCurrent Charge ]
}

Data {
      0.00000000000000E+00
      0.00000000000000E+00   0.00000000000000E+00   0.00000000000000E+00   0.00000000000000E+00  -7.28695601118886E-21
      4.74416337111878E-34  -7.28695601118839E-21   4.63556015786951E-18   0.00000000000000E+00   0.00000000000000E+00
      0.00000000000000E+00   0.00000000000000E+00   0.00000000000000E+00   0.00000000000000E+00   0.00000000000000E+00
      1.86437461995170E-18   0.00000000000000E+00   0.00000000000000E+00   0.00000000000000E+00   0.00000000000000E+00
      1.60373282796225E-20  -9.30196720350245E-34   1.60373282796216E-20  -1.08187234433104E-17   0.00000000000000E+00
      0.00000000000000E+00   0.00000000000000E+00   0.00000000000000E+00  -8.75037226843368E-21   4.55780383238367E-34
     -8.75037226843322E-21   4.31878866548919E-18
      0.00000000000000E+00
      0.00000000000000E+00   0.00000000000000E+00   0.00000000000000E+00   0.00000000000000E+00  -8.91660042972520E-20
      4.74517420748550E-34  -8.91660042972515E-20   4.63403778173231E-18   0.00000000000000E+00   0.00000000000000E+00
      0.00000000000000E+00   0.00000000000000E+00   0.00000000000000E+00   0.00000000000000E+00   0.00000000000000E+00
      1.85974451113458E-18   0.00000000000000E+00   0.00000000000000E+00   0.00000000000000E+00   0.00000000000000E+00
      3.60120669757338E-19  -9.06425535235202E-34   3.60120669757338E-19  -1.08113044509060E-17   0.00000000000000E+00
      0.00000000000000E+00   0.00000000000000E+00   0.00000000000000E+00  -2.70954665460087E-19   4.31908114486651E-34
     -2.70954665460086E-19   4.31752215803905E-18
      1.00000000000000E-03
      0.00000000000000E+00   3.20503718741893E-12   0.00000000000000E+00   0.00000000000000E+00  -1.51156163488002E-11
      4.81886214333311E-34  -1.51156163488002E-11   4.63401196405701E-18   0.00000000000000E+00   0.00000000000000E+00
      0.00000000000000E+00   0.00000000000000E+00   0.00000000000000E+00   0.00000000000000E+00   0.00000000000000E+00
      1.85910563742541E-18   0.00000000000000E+00   0.00000000000000E+00   0.00000000000000E+00   0.00000000000000E+00
     -1.76284398923603E-20  -9.01328496336602E-34  -1.76284398923612E-20  -1.08112657804062E-17   5.00000000000000E-05
      4.99999967871812E-05   0.00000000000000E+00   0.00000000000000E+00   1.51156163664287E-11   4.19442282003290E-34
      1.51156163664287E-11   4.31814817892379E-18
      2.09333333333333E-03
      0.00000000000000E+00   6.69795174454696E-12   0.00000000000000E+00   0.00000000000000E+00  -3.15888955520633E-11
      4.64549720742228E-34  -3.15888955520633E-11   4.63398373715184E-18   0.00000000000000E+00   0.00000000000000E+00
      0.00000000000000E+00   0.00000000000000E+00   0.00000000000000E+00   0.00000000000000E+00   0.00000000000000E+00
      1.85840714505177E-18   0.00000000000000E+00   0.00000000000000E+00   0.00000000000000E+00   0.00000000000000E+00
      1.99234840709114E-19  -9.14748171036196E-34   1.99234840709114E-19  -1.08112235258745E-17   1.04666666666667E-04
      1.04666659952451E-04   0.00000000000000E+00   0.00000000000000E+00   3.15888953528284E-11   4.50198450293968E-34
      3.15888953528284E-11   4.31883264367089E-18
      3.29600000000000E-03
      0.00000000000000E+00   1.05259800836678E-11   0.00000000000000E+00   0.00000000000000E+00  -4.96426095045534E-11
      4.71032666921414E-34  -4.96426095045534E-11   4.63395268806528E-18   0.00000000000000E+00   0.00000000000000E+00
      0.00000000000000E+00   0.00000000000000E+00   0.00000000000000E+00   0.00000000000000E+00   0.00000000000000E+00
      1.85763881495183E-18   0.00000000000000E+00   0.00000000000000E+00   0.00000000000000E+00   0.00000000000000E+00
     -9.88676564542492E-21  -8.97596216413825E-34  -9.88676564542581E-21  -1.08111770762912E-17   1.64800000000000E-04
      1.64799989448463E-04   0.00000000000000E+00   0.00000000000000E+00   4.96426095144401E-11   4.26563549492410E-34
      4.96426095144401E-11   4.31958557327406E-18
      4.61893333333333E-03
      0.00000000000000E+00   1.47192500449932E-11   0.00000000000000E+00   0.00000000000000E+00  -6.94188365387257E-11
      4.88855852845495E-34  -6.94188365387257E-11   4.63391853468781E-18   0.00000000000000E+00   0.00000000000000E+00
      0.00000000000000E+00   0.00000000000000E+00   0.00000000000000E+00   0.00000000000000E+00   0.00000000000000E+00
      1.85679366575807E-18   0.00000000000000E+00   0.00000000000000E+00   0.00000000000000E+00   0.00000000000000E+00
     -3.28398762185316E-20  -9.29824689489944E-34  -3.28398762185325E-20  -1.08111260185095E-17   2.30946666666667E-04
      2.30946651911683E-04   0.00000000000000E+00   0.00000000000000E+00   6.94188365715656E-11   4.40968836644449E-34
      6.94188365715656E-11   4.32041381806360E-18
      6.07416000000000E-03
      0.00000000000000E+00   1.93102602801744E-11   0.00000000000000E+00   0.00000000000000E+00  -9.10707962481607E-11
      4.73830869256782E-34  -9.10707962481607E-11   4.63388096672138E-18   0.00000000000000E+00   0.00000000000000E+00
      0.00000000000000E+00   0.00000000000000E+00   0.00000000000000E+00   0.00000000000000E+00   0.00000000000000E+00
      1.85586401846728E-18   0.00000000000000E+00   0.00000000000000E+00   0.00000000000000E+00   0.00000000000000E+00
     -5.44392269629479E-21  -9.19092357493485E-34  -5.44392269629571E-21  -1.08110698993950E-17   3.03708000000000E-04
      3.03707980642867E-04   0.00000000000000E+00   0.00000000000000E+00   9.10707962536047E-11   4.45261488236702E-34
      9.10707962536047E-11   4.32132491420635E-18
      7.67490933333333E-03
      0.00000000000000E+00   2.43339372403016E-11   0.00000000000000E+00   0.00000000000000E+00  -1.14763184186134E-10
      4.65856750385548E-34  -1.14763184186134E-10   4.63383964286544E-18   0.00000000000000E+00   0.00000000000000E+00
      0.00000000000000E+00   0.00000000000000E+00   0.00000000000000E+00   0.00000000000000E+00   0.00000000000000E+00
      1.85484142678075E-18   0.00000000000000E+00   0.00000000000000E+00   0.00000000000000E+00   0.00000000000000E+00
      1.65902583005735E-19  -8.89544300935233E-34   1.65902583005734E-19  -1.08110082221028E-17   3.83745466666667E-04
      3.83745442273679E-04   0.00000000000000E+00   0.00000000000000E+00   1.14763184020231E-10   4.23687550549685E-34
      1.14763184020231E-10   4.32232715245660E-18
      9.43573360000000E-03
      0.00000000000000E+00   2.98277032295343E-11   0.00000000000000E+00   0.00000000000000E+00  -1.40672467643911E-10
      4.83905697483124E-34  -1.40672467643911E-10   4.63379418772232E-18   0.00000000000000E+00   0.00000000000000E+00
      0.00000000000000E+00   0.00000000000000E+00   0.00000000000000E+00   0.00000000000000E+00   0.00000000000000E+00
      1.85371660049989E-18   0.00000000000000E+00   0.00000000000000E+00   0.00000000000000E+00   0.00000000000000E+00
      3.34585381183380E-19  -9.07500762716786E-34   3.34585381183379E-19  -1.08109404420388E-17   4.71786680000000E-04
      4.71786650099917E-04   0.00000000000000E+00   0.00000000000000E+00   1.40672467309325E-10   4.23595065233660E-34
      1.40672467309325E-10   4.32342965381659E-18
      1.13726402933333E-02
      0.00000000000000E+00   3.58315273070044E-11   0.00000000000000E+00   0.00000000000000E+00  -1.68987075952828E-10
      4.70919665541370E-34  -1.68987075952828E-10   4.63374418839457E-18   0.00000000000000E+00   0.00000000000000E+00
      0.00000000000000E+00   0.00000000000000E+00   0.00000000000000E+00   0.00000000000000E+00   0.00000000000000E+00
      1.85247932128763E-18   0.00000000000000E+00   0.00000000000000E+00   0.00000000000000E+00   0.00000000000000E+00
      4.49614116089336E-20  -9.02438047809262E-34   4.49614116089327E-20  -1.08108659624875E-17   5.68632014666667E-04
      5.68631978748207E-04   0.00000000000000E+00   0.00000000000000E+00   1.68987075907867E-10   4.31518382267891E-34
      1.68987075907867E-10   4.32464245280529E-18
      1.35032376560000E-02
      0.00000000000000E+00   4.23879258400973E-11   0.00000000000000E+00   0.00000000000000E+00  -1.99907434946586E-10
      4.65070105775116E-34  -1.99907434946586E-10   4.63368919074311E-18   0.00000000000000E+00   0.00000000000000E+00
      0.00000000000000E+00   0.00000000000000E+00   0.00000000000000E+00   0.00000000000000E+00   0.00000000000000E+00
      1.85111835003653E-18   0.00000000000000E+00   0.00000000000000E+00   0.00000000000000E+00   0.00000000000000E+00
      1.97330821607731E-19  -9.04667778850684E-34   1.97330821607730E-19  -1.08107841298840E-17   6.75161882800000E-04
      6.75161840309262E-04   0.00000000000000E+00   0.00000000000000E+00   1.99907434749255E-10   4.39597673075567E-34
      1.99907434749255E-10   4.32597658910437E-18
      1.58468947549333E-02
      0.00000000000000E+00   4.95418955573844E-11   0.00000000000000E+00   0.00000000000000E+00  -2.33645797587408E-10
      4.72879061912329E-34  -2.33645797587408E-10   4.63362869527313E-18   0.00000000000000E+00   0.00000000000000E+00
      0.00000000000000E+00   0.00000000000000E+00   0.00000000000000E+00   0.00000000000000E+00   0.00000000000000E+00
      1.84962132500993E-18   0.00000000000000E+00   0.00000000000000E+00   0.00000000000000E+00   0.00000000000000E+00
      6.49158396502964E-19  -8.96729741141281E-34   6.49158396502963E-19  -1.08106942287119E-17   7.92344737746667E-04
      7.92344688084611E-04   0.00000000000000E+00   0.00000000000000E+00   2.33645796938249E-10   4.23850679228951E-34
      2.33645796938249E-10   4.32744420842886E-18
      1.84249175637600E-02
      0.00000000000000E+00   5.73409185281574E-11   0.00000000000000E+00   0.00000000000000E+00  -2.70425802200460E-10
      4.71270876247327E-34  -2.70425802200460E-10   4.63356215261047E-18   0.00000000000000E+00   0.00000000000000E+00
      0.00000000000000E+00   0.00000000000000E+00   0.00000000000000E+00   0.00000000000000E+00   0.00000000000000E+00
      1.84797464984359E-18   0.00000000000000E+00   0.00000000000000E+00   0.00000000000000E+00   0.00000000000000E+00
      6.43713278165939E-19  -8.98073171076432E-34   6.43713278165938E-19  -1.08105954760130E-17   9.21245878188001E-04
      9.21245820708045E-04   0.00000000000000E+00   0.00000000000000E+00   2.70425801556747E-10   4.26802294829104E-34
      2.70425801556747E-10   4.32905867355900E-18
      2.12607426534693E-02
      0.00000000000000E+00   6.58346628371099E-11   0.00000000000000E+00   0.00000000000000E+00  -3.10481697844194E-10
      4.55441606428009E-34  -3.10481697844194E-10   4.63348895852827E-18   0.00000000000000E+00   0.00000000000000E+00
      0.00000000000000E+00   0.00000000000000E+00   0.00000000000000E+00   0.00000000000000E+00   0.00000000000000E+00
      1.84616337040096E-18   0.00000000000000E+00   0.00000000000000E+00   0.00000000000000E+00   0.00000000000000E+00
      1.29954476138356E-18  -8.91391285834849E-34   1.29954476138356E-18  -1.08104870154925E-17   1.06303713267347E-03
      1.06303706667921E-03   0.00000000000000E+00   0.00000000000000E+00   3.10481696544649E-10   4.35949679406838E-34
      3.10481696544649E-10   4.33083468656322E-18
      2.43801502521496E-02
      0.00000000000000E+00   7.50748265589402E-11   0.00000000000000E+00   0.00000000000000E+00  -3.54057161585020E-10
      4.73750392973529E-34  -3.54057161585020E-10   4.63340844847891E-18   0.00000000000000E+00   0.00000000000000E+00
      0.00000000000000E+00   0.00000000000000E+00   0.00000000000000E+00   0.00000000000000E+00   0.00000000000000E+00
      1.84417103937703E-18   0.00000000000000E+00   0.00000000000000E+00   0.00000000000000E+00   0.00000000000000E+00
      1.39210556839479E-18  -9.02282697767291E-34   1.39210556839478E-18  -1.08103679112049E-17   1.21900751260748E-03
      1.21900743735069E-03   0.00000000000000E+00   0.00000000000000E+00   3.54057160192914E-10   4.28532304793761E-34
      3.54057160192914E-10   4.33278842334896E-18
      2.78114986106979E-02
      0.00000000000000E+00   8.51147720392475E-11   0.00000000000000E+00   0.00000000000000E+00  -4.01403617310793E-10
      4.87693679733625E-34  -4.01403617310793E-10   4.63331989158293E-18   0.00000000000000E+00   0.00000000000000E+00
      0.00000000000000E+00   0.00000000000000E+00   0.00000000000000E+00   0.00000000000000E+00   0.00000000000000E+00
      1.84197956743968E-18   0.00000000000000E+00   0.00000000000000E+00   0.00000000000000E+00   0.00000000000000E+00
      2.10501391091815E-18  -9.19346961733997E-34   2.10501391091815E-18  -1.08102371408183E-17   1.39057493053490E-03
      1.39057484521388E-03   0.00000000000000E+00   0.00000000000000E+00   4.01403615205780E-10   4.31653282000371E-34
      4.01403615205780E-10   4.33493768179571E-18
      3.15859818051010E-02
      0.00000000000000E+00   9.60090024901857E-11   0.00000000000000E+00   0.00000000000000E+00  -4.52777946826953E-10
      4.64902198294716E-34  -4.52777946826953E-10   4.63322248402079E-18   0.00000000000000E+00   0.00000000000000E+00
      0.00000000000000E+00   0.00000000000000E+00   0.00000000000000E+00   0.00000000000000E+00   0.00000000000000E+00
      1.83956905957865E-18   0.00000000000000E+00   0.00000000000000E+00   0.00000000000000E+00   0.00000000000000E+00
      2.98722532220759E-18  -8.75061680101049E-34   2.98722532220759E-18  -1.08100935884548E-17   1.57929909025505E-03
      1.57929899401347E-03   0.00000000000000E+00   0.00000000000000E+00   4.52777943839727E-10   4.10159481806332E-34
      4.52777943839727E-10   4.33730204485537E-18
      3.57379133189445E-02
      0.00000000000000E+00   1.07812576618585E-10   0.00000000000000E+00   0.00000000000000E+00  -5.08439533705681E-10
      4.85630329424840E-34  -5.08439533705681E-10   4.63311534176887E-18   0.00000000000000E+00   0.00000000000000E+00
      0.00000000000000E+00   0.00000000000000E+00   0.00000000000000E+00   0.00000000000000E+00   0.00000000000000E+00
      1.83691763519900E-18   0.00000000000000E+00   0.00000000000000E+00   0.00000000000000E+00   0.00000000000000E+00
      4.44098451865028E-17  -8.90729884508099E-34   4.44098451865028E-17  -1.08099360371142E-17   1.78689566594722E-03
      1.78689555787354E-03   0.00000000000000E+00   0.00000000000000E+00   5.08439489295836E-10   4.05099555083259E-34
      5.08439489295836E-10   4.33990306014625E-18
      4.03050379841723E-02
      0.00000000000000E+00   1.20580247166577E-10   0.00000000000000E+00   0.00000000000000E+00  -5.68646235649503E-10
      4.94803372642018E-34  -5.68646235649503E-10   4.63299749261529E-18   0.00000000000000E+00   0.00000000000000E+00
      0.00000000000000E+00   0.00000000000000E+00   0.00000000000000E+00   0.00000000000000E+00   0.00000000000000E+00
      1.83400123035584E-18   0.00000000000000E+00   0.00000000000000E+00   0.00000000000000E+00   0.00000000000000E+00
      6.56486959669909E-18  -9.08704200686667E-34   6.56486959669909E-18  -1.08097631606983E-17   2.01525189920861E-03
      2.01525177833641E-03   0.00000000000000E+00   0.00000000000000E+00   5.68646229084633E-10   4.13900828044648E-34
      5.68646229084633E-10   4.34276443772716E-18
      4.53288751159228E-02
      0.00000000000000E+00   1.34365496541859E-10   0.00000000000000E+00   0.00000000000000E+00  -6.33649992768503E-10
      4.38254705247375E-34  -6.33649992768503E-10   4.63286786738391E-18   0.00000000000000E+00   0.00000000000000E+00
      0.00000000000000E+00   0.00000000000000E+00   0.00000000000000E+00   0.00000000000000E+00   0.00000000000000E+00
      1.83079338037053E-18   0.00000000000000E+00   0.00000000000000E+00   0.00000000000000E+00   0.00000000000000E+00
      9.52978233936046E-18  -8.21261824338667E-34   9.52978233936046E-18  -1.08095735156692E-17   2.26644375579614E-03
      2.26644362110540E-03   0.00000000000000E+00   0.00000000000000E+00   6.33649983238720E-10   3.83007119091292E-34
      6.33649983238720E-10   4.34591226791481E-18
      5.08550959608485E-02
      0.00000000000000E+00   1.49219247671677E-10   0.00000000000000E+00   0.00000000000000E+00  -7.03690529509741E-10
      4.90711302056998E-34  -7.03690529509741E-10   4.63272529028971E-18   0.00000000000000E+00   0.00000000000000E+00
      0.00000000000000E+00   0.00000000000000E+00   0.00000000000000E+00   0.00000000000000E+00   0.00000000000000E+00
      1.82726498089777E-18   0.00000000000000E+00   0.00000000000000E+00   0.00000000000000E+00   0.00000000000000E+00
      1.39152795220080E-17  -8.93692567692298E-34   1.39152795220080E-17  -1.08093655323868E-17   2.54275479804242E-03
      2.54275464846207E-03   0.00000000000000E+00   0.00000000000000E+00   7.03690515594461E-10   4.02981265635300E-34
      7.03690515594461E-10   4.34937526119934E-18
      5.69339388902666E-02
      0.00000000000000E+00   1.65188398360007E-10   0.00000000000000E+00   0.00000000000000E+00  -7.78988471166208E-10
      4.83415351054025E-34  -7.78988471166208E-10   4.63256846833919E-18   0.00000000000000E+00   0.00000000000000E+00
      0.00000000000000E+00   0.00000000000000E+00   0.00000000000000E+00   0.00000000000000E+00   0.00000000000000E+00
      1.82338402531674E-18   0.00000000000000E+00   0.00000000000000E+00   0.00000000000000E+00   0.00000000000000E+00
      2.00690402973057E-17  -8.80851242732829E-34   2.00690402973057E-17  -1.08091375061865E-17   2.84669694451333E-03
      2.84669677892531E-03   0.00000000000000E+00   0.00000000000000E+00   7.78988451097167E-10   3.97435891678804E-34
      7.78988451097167E-10   4.35318501253061E-18
      6.36206661126266E-02
      0.00000000000000E+00   1.82314004310944E-10   0.00000000000000E+00   0.00000000000000E+00  -8.59736981581617E-10
      4.76054047899005E-34  -8.59736981581617E-10   4.63239597968094E-18   0.00000000000000E+00   0.00000000000000E+00
      0.00000000000000E+00   0.00000000000000E+00   0.00000000000000E+00   0.00000000000000E+00   0.00000000000000E+00
      1.81911531610497E-18   0.00000000000000E+00   0.00000000000000E+00   0.00000000000000E+00   0.00000000000000E+00
      2.98850152679263E-17  -8.60007823513288E-34   2.98850152679263E-17  -1.08088875882628E-17   3.18103330563133E-03
      3.18103312287641E-03   0.00000000000000E+00   0.00000000000000E+00   8.59736951696602E-10   3.83953775614282E-34
      8.59736951696602E-10   4.35737629247687E-18
      7.09760660572226E-02
      0.00000000000000E+00   2.00629240286193E-10   0.00000000000000E+00   0.00000000000000E+00  -9.46091810771779E-10
      4.83937875071478E-34  -9.46091810771779E-10   4.63220626080865E-18   0.00000000000000E+00   0.00000000000000E+00
      0.00000000000000E+00   0.00000000000000E+00   0.00000000000000E+00   0.00000000000000E+00   0.00000000000000E+00
      1.81442014771088E-18   0.00000000000000E+00   0.00000000000000E+00   0.00000000000000E+00   0.00000000000000E+00
      4.81612783535450E-17  -8.55717297488945E-34   4.81612783535450E-17  -1.08086137765818E-17   3.54880330286113E-03
      3.54880310174684E-03   0.00000000000000E+00   0.00000000000000E+00   9.46091762610501E-10   3.71779422417467E-34
      9.46091762610501E-10   4.36198736806227E-18
      7.90670059962782E-02
      0.00000000000000E+00   2.20156924723415E-10   0.00000000000000E+00   0.00000000000000E+00  -1.03816002926294E-09
      4.59668204198996E-34  -1.03816002926294E-09   4.63199759249834E-18   0.00000000000000E+00   0.00000000000000E+00
      0.00000000000000E+00   0.00000000000000E+00   0.00000000000000E+00   0.00000000000000E+00   0.00000000000000E+00
      1.80925595805185E-18   0.00000000000000E+00   0.00000000000000E+00   0.00000000000000E+00   0.00000000000000E+00
     -5.08245172854401E-18  -8.41416918482596E-34  -5.08245172854401E-18  -1.08083139068745E-17   3.95335029981391E-03
      3.95335007912489E-03   0.00000000000000E+00   0.00000000000000E+00   1.03816003434539E-09   3.81748714283599E-34
      1.03816003434539E-09   4.36706035632427E-18
      8.79670399292394E-02
      0.00000000000000E+00   2.40906933698268E-10   0.00000000000000E+00   0.00000000000000E+00  -1.13598739685741E-09
      4.89497429558301E-34  -1.13598739685741E-09   4.63176808435604E-18   0.00000000000000E+00   0.00000000000000E+00
      0.00000000000000E+00   0.00000000000000E+00   0.00000000000000E+00   0.00000000000000E+00   0.00000000000000E+00
      1.80357594555673E-18   0.00000000000000E+00   0.00000000000000E+00   0.00000000000000E+00   0.00000000000000E+00
      1.74754881481628E-16  -8.57427763295846E-34   1.74754881481628E-16  -1.08079856438825E-17   4.39835199646197E-03
      4.39835175497298E-03   0.00000000000000E+00   0.00000000000000E+00   1.13598722210253E-09   3.67930333737544E-34
      1.13598722210253E-09   4.37264161396978E-18
      9.77570772554967E-02
      0.00000000000000E+00   2.62873118592894E-10   0.00000000000000E+00   0.00000000000000E+00  -1.23954404697130E-09
      4.66058255036209E-34  -1.23954404697130E-09   4.63151565784646E-18   0.00000000000000E+00   0.00000000000000E+00
      0.00000000000000E+00   0.00000000000000E+00   0.00000000000000E+00   0.00000000000000E+00   0.00000000000000E+00
      1.79732864849754E-18   0.00000000000000E+00   0.00000000000000E+00   0.00000000000000E+00   0.00000000000000E+00
      1.31944576982904E-16  -8.39592293915411E-34   1.31944576982904E-16  -1.08076264732943E-17   4.88785386277484E-03
      4.88785359926681E-03   0.00000000000000E+00   0.00000000000000E+00   1.23954391502672E-09   3.73534038879201E-34
      1.23954391502672E-09   4.37878216695030E-18
      1.07757077255497E-01
      0.00000000000000E+00   2.84410492581691E-10   0.00000000000000E+00   0.00000000000000E+00  -1.34107495731192E-09
      4.75247332142177E-34  -1.34107495731192E-09   4.63125785249054E-18   0.00000000000000E+00   0.00000000000000E+00
      0.00000000000000E+00   0.00000000000000E+00   0.00000000000000E+00   0.00000000000000E+00   0.00000000000000E+00
      1.79094813827226E-18   0.00000000000000E+00   0.00000000000000E+00   0.00000000000000E+00   0.00000000000000E+00
      1.52855725962193E-16  -8.22988828272999E-34   1.52855725962193E-16  -1.08072616639282E-17   5.38785386277483E-03
      5.38785357767762E-03   0.00000000000000E+00   0.00000000000000E+00   1.34107480445620E-09   3.47741496130822E-34
      1.34107480445620E-09   4.38505567316543E-18
      1.17757077255497E-01
      0.00000000000000E+00   3.05068792373317E-10   0.00000000000000E+00   0.00000000000000E+00  -1.43845772031334E-09
      4.67811712006833E-34  -1.43845772031334E-09   4.63100008206198E-18   0.00000000000000E+00   0.00000000000000E+00
      0.00000000000000E+00   0.00000000000000E+00   0.00000000000000E+00   0.00000000000000E+00   0.00000000000000E+00
      1.78456840056244E-18   0.00000000000000E+00   0.00000000000000E+00   0.00000000000000E+00   0.00000000000000E+00
      1.00284478047401E-16  -8.19389890057750E-34   1.00284478047401E-16  -1.08068989290593E-17   5.88785386277483E-03
      5.88785355696969E-03   0.00000000000000E+00   0.00000000000000E+00   1.43845762002886E-09   3.51578178050917E-34
      1.43845762002886E-09   4.39133044643493E-18
      1.27757077255497E-01
      0.00000000000000E+00   3.24878344989340E-10   0.00000000000000E+00   0.00000000000000E+00  -1.53183585047554E-09
      4.81574379332734E-34  -1.53183585047554E-09   4.63074234627610E-18   0.00000000000000E+00   0.00000000000000E+00
      0.00000000000000E+00   0.00000000000000E+00   0.00000000000000E+00   0.00000000000000E+00   0.00000000000000E+00
      1.77818942971495E-18   0.00000000000000E+00   0.00000000000000E+00   0.00000000000000E+00   0.00000000000000E+00
      1.37002923446822E-16  -8.32876470054503E-34   1.37002923446822E-16  -1.08065382569428E-17   6.38785386277483E-03
      6.38785353711257E-03   0.00000000000000E+00   0.00000000000000E+00   1.53183571347262E-09   3.51302090721768E-34
      1.53183571347262E-09   4.39760648095177E-18
      1.37757077255497E-01
      0.00000000000000E+00   3.43869012694828E-10   0.00000000000000E+00   0.00000000000000E+00  -1.62135056220563E-09
      4.94230839638401E-34  -1.62135056220563E-09   4.63048464484826E-18   0.00000000000000E+00   0.00000000000000E+00
      0.00000000000000E+00   0.00000000000000E+00   0.00000000000000E+00   0.00000000000000E+00   0.00000000000000E+00
      1.77181122019429E-18   0.00000000000000E+00   0.00000000000000E+00   0.00000000000000E+00   0.00000000000000E+00
      1.59240099951607E-16  -8.40682148638385E-34   1.59240099951607E-16  -1.08061796360094E-17   6.88785386277483E-03
      6.88785351807632E-03   0.00000000000000E+00   0.00000000000000E+00   1.62135040296553E-09   3.46451308999984E-34
      1.62135040296553E-09   4.40388377096691E-18
      1.47757077255497E-01
      0.00000000000000E+00   3.62070042505766E-10   0.00000000000000E+00   0.00000000000000E+00  -1.70714032634885E-09
      4.62960742799583E-34  -1.70714032634885E-09   4.63022697749345E-18   0.00000000000000E+00   0.00000000000000E+00
      0.00000000000000E+00   0.00000000000000E+00   0.00000000000000E+00   0.00000000000000E+00   0.00000000000000E+00
      1.76543376651496E-18   0.00000000000000E+00   0.00000000000000E+00   0.00000000000000E+00   0.00000000000000E+00
      1.27345601615085E-16  -8.15239889154970E-34   1.27345601615085E-16  -1.08058230547834E-17   7.38785386277483E-03
      7.38785349983161E-03   0.00000000000000E+00   0.00000000000000E+00   1.70714019900325E-09   3.52279146355386E-34
      1.70714019900325E-09   4.41016231077501E-18
      1.57757077255497E-01
      0.00000000000000E+00   3.79510125390184E-10   0.00000000000000E+00   0.00000000000000E+00  -1.78934075405719E-09
      4.68495248913317E-34  -1.78934075405719E-09   4.62996934392658E-18   0.00000000000000E+00   0.00000000000000E+00
      0.00000000000000E+00   0.00000000000000E+00   0.00000000000000E+00   0.00000000000000E+00   0.00000000000000E+00
      1.75905706323471E-18   0.00000000000000E+00   0.00000000000000E+00   0.00000000000000E+00   0.00000000000000E+00
      1.47629520993458E-16  -8.04883406095863E-34   1.47629520993458E-16  -1.08054685018648E-17   7.88785386277484E-03
      7.88785348234970E-03   0.00000000000000E+00   0.00000000000000E+00   1.78934060642767E-09   3.36388157182545E-34
      1.78934060642767E-09   4.41644209470346E-18
      1.67757077255497E-01
      0.00000000000000E+00   3.96217273439646E-10   0.00000000000000E+00   0.00000000000000E+00  -1.86808439246720E-09
      4.68426823507905E-34  -1.86808439246720E-09   4.62971174385967E-18   0.00000000000000E+00   0.00000000000000E+00
      0.00000000000000E+00   0.00000000000000E+00   0.00000000000000E+00   0.00000000000000E+00   0.00000000000000E+00
      1.75268110490974E-18   0.00000000000000E+00   0.00000000000000E+00   0.00000000000000E+00   0.00000000000000E+00
      1.07599677383107E-16  -8.06291027755318E-34   1.07599677383107E-16  -1.08051159658620E-17   8.38785386277484E-03
      8.38785346560249E-03   0.00000000000000E+00   0.00000000000000E+00   1.86808428486753E-09   3.37864204247412E-34
      1.86808428486753E-09   4.42272311709264E-18
      1.77757077255497E-01
      0.00000000000000E+00   4.12218799397842E-10   0.00000000000000E+00   0.00000000000000E+00  -1.94350037763075E-09
      4.77911067594213E-34  -1.94350037763075E-09   4.62945417700771E-18   0.00000000000000E+00   0.00000000000000E+00
      0.00000000000000E+00   0.00000000000000E+00   0.00000000000000E+00   0.00000000000000E+00   0.00000000000000E+00
      1.74630588618302E-18   0.00000000000000E+00   0.00000000000000E+00   0.00000000000000E+00   0.00000000000000E+00
      1.29141422634889E-16  -7.93456095006885E-34   1.29141422634889E-16  -1.08047654355321E-17   8.88785386277484E-03
      8.88785344956261E-03   0.00000000000000E+00   0.00000000000000E+00   1.94350024848933E-09   3.15545027412672E-34
      1.94350024848933E-09   4.42900537234140E-18
      1.87757077255497E-01
      0.00000000000000E+00   4.27541323853241E-10   0.00000000000000E+00   0.00000000000000E+00  -2.01571464384226E-09
      4.66684223402955E-34  -2.01571464384226E-09   4.62919664308019E-18   0.00000000000000E+00   0.00000000000000E+00
      0.00000000000000E+00   0.00000000000000E+00   0.00000000000000E+00   0.00000000000000E+00   0.00000000000000E+00
      1.73993140164849E-18   0.00000000000000E+00   0.00000000000000E+00   0.00000000000000E+00   0.00000000000000E+00
      9.28840371383091E-17  -7.88922020944632E-34   9.28840371383091E-17  -1.08044168995662E-17   9.38785386277484E-03
      9.38785343420338E-03   0.00000000000000E+00   0.00000000000000E+00   2.01571455095822E-09   3.22237797541677E-34
      2.01571455095822E-09   4.43528885483748E-18
      1.97757077255497E-01
      0.00000000000000E+00   4.42210744808610E-10   0.00000000000000E+00   0.00000000000000E+00  -2.08484961204916E-09