DF-ISE text

Info {
  version   = 1.0
  type      = xyplot
  datasets  = [
    "time"
    "source OuterVoltage" "source InnerVoltage" "source QuasiFermiPotential" "source DisplacementCurrent" "source eCurrent"
    "source hCurrent" "source TotalCurrent" "source Charge" "gate OuterVoltage" "gate InnerVoltage"
    "gate QuasiFermiPotential" "gate DisplacementCurrent" "gate eCurrent" "gate hCurrent" "gate TotalCurrent"
    "gate Charge" "substrate OuterVoltage" "substrate InnerVoltage" "substrate QuasiFermiPotential" "substrate DisplacementCurrent"
    "substrate eCurrent" "substrate hCurrent" "substrate TotalCurrent" "substrate Charge" "drain OuterVoltage"
    "drain InnerVoltage" "drain QuasiFermiPotential" "drain DisplacementCurrent" "drain eCurrent" "drain hCurrent"
    "drain TotalCurrent" "drain Charge" ]
  functions = [
    Time
    OuterVoltage InnerVoltage QuasiFermiPotential DisplacementCurrent eCurrent
    hCurrent TotalCurrent Charge OuterVoltage InnerVoltage
    QuasiFermiPotential DisplacementCurrent eCurrent hCurrent TotalCurrent
    Charge OuterVoltage InnerVoltage QuasiFermiPotential DisplacementCurrent
    eCurrent hCurrent TotalCurrent Charge OuterVoltage
    InnerVoltage QuasiFermiPotential DisplacementCurrent eCurrent hCurrent
    TotalCurrent Charge ]
}

Data {
      0.00000000000000E+00
      0.00000000000000E+00   0.00000000000000E+00   0.00000000000000E+00   0.00000000000000E+00  -1.49679260414969E-21
      6.43514994970539E-34  -1.49679260414905E-21   4.80726239709699E-18   0.00000000000000E+00   0.00000000000000E+00
      0.00000000000000E+00   0.00000000000000E+00   0.00000000000000E+00   0.00000000000000E+00   0.00000000000000E+00
      3.37655214090585E-18   0.00000000000000E+00   0.00000000000000E+00   0.00000000000000E+00   0.00000000000000E+00
      6.41288578597326E-22  -1.26354517049917E-33   6.41288578596063E-22  -1.21806663265679E-17   0.00000000000000E+00
      0.00000000000000E+00   0.00000000000000E+00   0.00000000000000E+00   8.55504025552362E-22   6.20030175528636E-34
      8.55504025552982E-22   3.99685178856512E-18
      0.00000000000000E+00
      0.00000000000000E+00   0.00000000000000E+00   0.00000000000000E+00   0.00000000000000E+00  -1.48213577060214E-20
      6.05978353723051E-34  -1.48213577060208E-20   4.80535514028971E-18   0.00000000000000E+00   0.00000000000000E+00
      0.00000000000000E+00   0.00000000000000E+00   0.00000000000000E+00   0.00000000000000E+00   0.00000000000000E+00
      3.37051557666760E-18   0.00000000000000E+00   0.00000000000000E+00   0.00000000000000E+00   0.00000000000000E+00
     -1.93775254875878E-21  -1.22042018347001E-33  -1.93775254876000E-21  -1.21713629909958E-17   0.00000000000000E+00
      0.00000000000000E+00   0.00000000000000E+00   0.00000000000000E+00   1.67591102547802E-20   6.14441829746953E-34
      1.67591102547808E-20   3.99549227403844E-18
      1.00000000000000E-03
      0.00000000000000E+00   2.55578025991011E-11   0.00000000000000E+00   0.00000000000000E+00  -1.21930562332644E-10
      6.69505212086532E-34  -1.21930562332644E-10   4.80504286141829E-18   0.00000000000000E+00   0.00000000000000E+00
      0.00000000000000E+00   0.00000000000000E+00   0.00000000000000E+00   0.00000000000000E+00   0.00000000000000E+00
      3.36079926141202E-18   0.00000000000000E+00   0.00000000000000E+00   0.00000000000000E+00   0.00000000000000E+00
      3.14025579023165E-21  -1.24740279453076E-33   3.14025579023040E-21  -1.21710546477368E-17   8.60000000000000E-04
      8.59999974235016E-04   0.00000000000000E+00   0.00000000000000E+00   1.21930562329504E-10   5.77897582444223E-34
      1.21930562329504E-10   4.00521252490650E-18
      2.08666666666667E-03
      0.00000000000000E+00   5.16893748475457E-11   0.00000000000000E+00   0.00000000000000E+00  -2.46588645666073E-10
      6.45394991947395E-34  -2.46588645666073E-10   4.80470358468610E-18   0.00000000000000E+00   0.00000000000000E+00
      0.00000000000000E+00   0.00000000000000E+00   0.00000000000000E+00   0.00000000000000E+00   0.00000000000000E+00
      3.35024329201312E-18   0.00000000000000E+00   0.00000000000000E+00   0.00000000000000E+00   0.00000000000000E+00
      5.65344798688856E-16  -1.24030326286064E-33   5.65344798688856E-16  -1.21707254502122E-17   1.79453333333333E-03
      1.79453328122471E-03   0.00000000000000E+00   0.00000000000000E+00   2.46588080321275E-10   5.94908270913243E-34
      2.46588080321275E-10   4.01577857351296E-18
      3.28200000000000E-03
      0.00000000000000E+00   7.84913878966263E-11   0.00000000000000E+00   0.00000000000000E+00  -3.74431065646229E-10
      6.26711109481638E-34  -3.74431065646229E-10   4.80433045917034E-18   0.00000000000000E+00   0.00000000000000E+00
      0.00000000000000E+00   0.00000000000000E+00   0.00000000000000E+00   0.00000000000000E+00   0.00000000000000E+00
      3.33863459996279E-18   0.00000000000000E+00   0.00000000000000E+00   0.00000000000000E+00   0.00000000000000E+00
      7.43375052705624E-16  -1.17512482167446E-33   7.43375052705624E-16  -1.21703703036249E-17   2.82252000000000E-03
      2.82251992087199E-03   0.00000000000000E+00   0.00000000000000E+00   3.74430322271176E-10   5.48413712192827E-34
      3.74430322271176E-10   4.02740524449182E-18
      4.59686666666667E-03
      0.00000000000000E+00   1.05724476099654E-10   0.00000000000000E+00   0.00000000000000E+00  -5.04313102991881E-10
      6.53057719536541E-34  -5.04313102991881E-10   4.80392011504880E-18   0.00000000000000E+00   0.00000000000000E+00
      0.00000000000000E+00   0.00000000000000E+00   0.00000000000000E+00   0.00000000000000E+00   0.00000000000000E+00
      3.32586845838636E-18   0.00000000000000E+00   0.00000000000000E+00   0.00000000000000E+00   0.00000000000000E+00
      5.29552190087671E-21  -1.19384188822572E-33   5.29552190087551E-21  -1.21699879604811E-17   3.95330533333333E-03
      3.95330522675160E-03   0.00000000000000E+00   0.00000000000000E+00   5.04313102986586E-10   5.40784168689179E-34
      5.04313102986586E-10   4.04019938704594E-18
      6.03445422222222E-03
      0.00000000000000E+00   1.32961052791384E-10   0.00000000000000E+00   0.00000000000000E+00  -6.34194481039754E-10
      6.34598699142926E-34  -6.34194481039754E-10   4.80347158262969E-18   0.00000000000000E+00   0.00000000000000E+00
      0.00000000000000E+00   0.00000000000000E+00   0.00000000000000E+00   0.00000000000000E+00   0.00000000000000E+00
      3.31191483492138E-18   0.00000000000000E+00   0.00000000000000E+00   0.00000000000000E+00   0.00000000000000E+00
     -8.80768173330717E-21  -1.12674304008841E-33  -8.80768173330829E-21  -1.21695797536005E-17   5.18963063111111E-03
      5.18963049707165E-03   0.00000000000000E+00   0.00000000000000E+00   6.34194481048561E-10   4.92144340945487E-34
      6.34194481048561E-10   4.05419333604942E-18
      7.60621661629630E-03
      0.00000000000000E+00   1.59920590843953E-10   0.00000000000000E+00   0.00000000000000E+00  -7.62735826373567E-10
      6.16193100965422E-34  -7.62735826373567E-10   4.80298131634948E-18   0.00000000000000E+00   0.00000000000000E+00
      0.00000000000000E+00   0.00000000000000E+00   0.00000000000000E+00   0.00000000000000E+00   0.00000000000000E+00
      3.29666358793437E-18   0.00000000000000E+00   0.00000000000000E+00   0.00000000000000E+00   0.00000000000000E+00
      1.59311482976381E-20  -1.08080783180535E-33   1.59311482976371E-20  -1.21691449942721E-17   6.54134629001482E-03
      6.54134612879666E-03   0.00000000000000E+00   0.00000000000000E+00   7.62735826357635E-10   4.64614730839928E-34
      7.62735826357635E-10   4.06950008998820E-18
      9.32467683381729E-03
      0.00000000000000E+00   1.86304500331183E-10   0.00000000000000E+00   0.00000000000000E+00  -8.88513479545309E-10
      6.43743311517526E-34  -8.88513479545309E-10   4.80244544243180E-18   0.00000000000000E+00   0.00000000000000E+00
      0.00000000000000E+00   0.00000000000000E+00   0.00000000000000E+00   0.00000000000000E+00   0.00000000000000E+00
      3.27999440389495E-18   0.00000000000000E+00   0.00000000000000E+00   0.00000000000000E+00   0.00000000000000E+00
      2.28997212169348E-20  -1.11454182854404E-33   2.28997212169336E-20  -1.21686832118842E-17   8.01922207708287E-03
      8.01922188926600E-03   0.00000000000000E+00   0.00000000000000E+00   8.88513479522409E-10   4.70798517026514E-34
      8.88513479522409E-10   4.08624336555747E-18
      1.12035266716402E-02
      0.00000000000000E+00   2.11802989491574E-10   0.00000000000000E+00   0.00000000000000E+00  -1.01005175573355E-09
      6.46469990273556E-34  -1.01005175573355E-09   4.80185972853752E-18   0.00000000000000E+00   0.00000000000000E+00
      0.00000000000000E+00   0.00000000000000E+00   0.00000000000000E+00   0.00000000000000E+00   0.00000000000000E+00
      3.26177586164078E-18   0.00000000000000E+00   0.00000000000000E+00   0.00000000000000E+00   0.00000000000000E+00
     -5.08513567986080E-21  -1.08593001986524E-33  -5.08513567986189E-21  -1.21681942141232E-17   9.63503293761060E-03
      9.63503272408722E-03   0.00000000000000E+00   0.00000000000000E+00   1.01005175573863E-09   4.39460029591684E-34
      1.01005175573863E-09   4.10455862394492E-18
      1.32577358276600E-02
      0.00000000000000E+00   2.36105181077000E-10   0.00000000000000E+00   0.00000000000000E+00  -1.12587131704441E-09
      6.23195799599522E-34  -1.12587131704441E-09   4.80121955055432E-18   0.00000000000000E+00   0.00000000000000E+00
      0.00000000000000E+00   0.00000000000000E+00   0.00000000000000E+00   0.00000000000000E+00   0.00000000000000E+00
      3.24186440964311E-18   0.00000000000000E+00   0.00000000000000E+00   0.00000000000000E+00   0.00000000000000E+00
      1.22798494274359E-20  -1.04487621096163E-33   1.22798494274348E-20  -1.21676781560591E-17   1.14016528117876E-02
      1.14016525737633E-02   0.00000000000000E+00   0.00000000000000E+00   1.12587131703213E-09   4.21680411362112E-34
      1.12587131703213E-09   4.12459419586168E-18
      1.55036711715749E-02
      0.00000000000000E+00   2.58911088691591E-10   0.00000000000000E+00   0.00000000000000E+00  -1.23454712285286E-09
      6.03100607102817E-34  -1.23454712285286E-09   4.80051985628987E-18   0.00000000000000E+00   0.00000000000000E+00
      0.00000000000000E+00   0.00000000000000E+00   0.00000000000000E+00   0.00000000000000E+00   0.00000000000000E+00
      3.22010324941762E-18   0.00000000000000E+00   0.00000000000000E+00   0.00000000000000E+00   0.00000000000000E+00
     -5.66330015234665E-22  -9.80437709052963E-34  -5.66330015235645E-22  -1.21671356207048E-17   1.33331572075544E-02
      1.33331569465373E-02   0.00000000000000E+00   0.00000000000000E+00   1.23454712285343E-09   3.77337101950146E-34
      1.23454712285343E-09   4.14651251499729E-18
      1.79592271475886E-02
      0.00000000000000E+00   2.79946704572515E-10   0.00000000000000E+00   0.00000000000000E+00  -1.33477997409557E-09
      6.13048682962399E-34  -1.33477997409557E-09   4.79975512573417E-18   0.00000000000000E+00   0.00000000000000E+00
      0.00000000000000E+00   0.00000000000000E+00   0.00000000000000E+00   0.00000000000000E+00   0.00000000000000E+00
      3.19632111457466E-18   0.00000000000000E+00   0.00000000000000E+00   0.00000000000000E+00   0.00000000000000E+00
     -2.17580155622643E-20  -9.75034118983401E-34  -2.17580155622652E-20  -1.21665677102064E-17   1.54449353469262E-02
      1.54449350647005E-02   0.00000000000000E+00   0.00000000000000E+00   1.33477997411733E-09   3.61985436021003E-34
      1.33477997411733E-09   4.17049146989755E-18
      2.06439683480302E-02
      0.00000000000000E+00   2.98981193891569E-10   0.00000000000000E+00   0.00000000000000E+00  -1.42547906356803E-09
      6.31528515919386E-34  -1.42547906356803E-09   4.79891932752581E-18   0.00000000000000E+00   0.00000000000000E+00
      0.00000000000000E+00   0.00000000000000E+00   0.00000000000000E+00   0.00000000000000E+00   0.00000000000000E+00
      3.17033093467466E-18   0.00000000000000E+00   0.00000000000000E+00   0.00000000000000E+00   0.00000000000000E+00
     -1.31764324630756E-21  -9.71622060126779E-34  -1.31764324630853E-21  -1.21659761468438E-17   1.77538127793060E-02
      1.77538124778888E-02   0.00000000000000E+00   0.00000000000000E+00   1.42547906356935E-09   3.40093544207393E-34
      1.42547906356935E-09   4.19672588464335E-18
      2.35792853938464E-02
      0.00000000000000E+00   3.15845681569317E-10   0.00000000000000E+00   0.00000000000000E+00  -1.50585139276500E-09
      6.26772630838089E-34  -1.50585139276500E-09   4.79800587125958E-18   0.00000000000000E+00   0.00000000000000E+00
      0.00000000000000E+00   0.00000000000000E+00   0.00000000000000E+00   0.00000000000000E+00   0.00000000000000E+00
      3.14192837278982E-18   0.00000000000000E+00   0.00000000000000E+00   0.00000000000000E+00   0.00000000000000E+00
      3.51448365904757E-20  -9.30982362925771E-34   3.51448365904748E-20  -1.21653633843419E-17   2.02781854387079E-02
      2.02781851202869E-02   0.00000000000000E+00   0.00000000000000E+00   1.50585139272985E-09   3.04209732087680E-34
      1.50585139272985E-09   4.22542914029248E-18
      2.67885653639387E-02
      0.00000000000000E+00   3.30452232983680E-10   0.00000000000000E+00   0.00000000000000E+00  -1.57549219957108E-09
      6.28535611881878E-34  -1.57549219957108E-09   4.79700755525148E-18   0.00000000000000E+00   0.00000000000000E+00
      0.00000000000000E+00   0.00000000000000E+00   0.00000000000000E+00   0.00000000000000E+00   0.00000000000000E+00
      3.11089022532988E-18   0.00000000000000E+00   0.00000000000000E+00   0.00000000000000E+00   0.00000000000000E+00
     -1.74629769137311E-20  -9.09883781743287E-34  -1.74629769137320E-20  -1.21647327312218E-17   2.30381662129873E-02
      2.30381658798392E-02   0.00000000000000E+00   0.00000000000000E+00   1.57549219958855E-09   2.81348169861410E-34
      1.57549219958855E-09   4.25683495064045E-18
      3.02973781312396E-02
      0.00000000000000E+00   3.42811859835255E-10   0.00000000000000E+00   0.00000000000000E+00  -1.63447015758009E-09
      6.61862667124268E-34  -1.63447015758009E-09   4.79591650928966E-18   0.00000000000000E+00   0.00000000000000E+00
      0.00000000000000E+00   0.00000000000000E+00   0.00000000000000E+00   0.00000000000000E+00   0.00000000000000E+00
      3.07697266858991E-18   0.00000000000000E+00   0.00000000000000E+00   0.00000000000000E+00   0.00000000000000E+00
     -2.14956705819774E-20  -9.09932893157935E-34  -2.14956705819783E-20  -1.21640884833228E-17   2.60557451928661E-02
      2.60557448472568E-02   0.00000000000000E+00   0.00000000000000E+00   1.63447015760158E-09   2.48070226033668E-34
      1.63447015760158E-09   4.29119930544327E-18
      3.41336800901553E-02
      0.00000000000000E+00   3.53048893043037E-10   0.00000000000000E+00   0.00000000000000E+00  -1.68339561765771E-09
      6.24798469710711E-34  -1.68339561765771E-09   4.79472413178721E-18   0.00000000000000E+00   0.00000000000000E+00
      0.00000000000000E+00   0.00000000000000E+00   0.00000000000000E+00   0.00000000000000E+00   0.00000000000000E+00
      3.03990933199277E-18   0.00000000000000E+00   0.00000000000000E+00   0.00000000000000E+00   0.00000000000000E+00
     -1.77711844901701E-20  -8.54761687662664E-34  -1.77711844901710E-20  -1.21634360568212E-17   2.93549648775336E-02
      2.93549645216048E-02   0.00000000000000E+00   0.00000000000000E+00   1.68339561767547E-09   2.29963217951953E-34
      1.68339561767547E-09   4.32880259304121E-18
      3.83280368985698E-02
      0.00000000000000E+00   3.61407055239141E-10   0.00000000000000E+00   0.00000000000000E+00  -1.72344797469295E-09
      6.05913178777407E-34  -1.72344797469295E-09   4.79342102109925E-18   0.00000000000000E+00   0.00000000000000E+00
      0.00000000000000E+00   0.00000000000000E+00   0.00000000000000E+00   0.00000000000000E+00   0.00000000000000E+00
      2.99940918955969E-18   0.00000000000000E+00   0.00000000000000E+00   0.00000000000000E+00   0.00000000000000E+00
      2.12728925612744E-20  -8.04831868858660E-34   2.12728925612736E-20  -1.21627821335834E-17   3.29621117327701E-02
      3.29621113684188E-02   0.00000000000000E+00   0.00000000000000E+00   1.72344797467167E-09   1.98918690081251E-34
      1.72344797467167E-09   4.36995192292448E-18
      4.29138670091030E-02
      0.00000000000000E+00   3.68242699707105E-10   0.00000000000000E+00   0.00000000000000E+00  -1.75634161703098E-09
      6.13726277521423E-34  -1.75634161703098E-09   4.79199690034286E-18   0.00000000000000E+00   0.00000000000000E+00
      0.00000000000000E+00   0.00000000000000E+00   0.00000000000000E+00   0.00000000000000E+00   0.00000000000000E+00
      2.95515423958950E-18   0.00000000000000E+00   0.00000000000000E+00   0.00000000000000E+00   0.00000000000000E+00
     -2.10154135097461E-18  -7.85049275990981E-34  -2.10154135097461E-18  -1.21621347995074E-17   3.69059256278286E-02
      3.69059252565936E-02   0.00000000000000E+00   0.00000000000000E+00   1.75634161913252E-09   1.71322998469557E-34
      1.75634161913252E-09   4.41498365957502E-18
      4.79277079299527E-02
      0.00000000000000E+00   3.73998382193024E-10   0.00000000000000E+00   0.00000000000000E+00  -1.78419719696045E-09
      6.27916343615330E-34  -1.78419719696045E-09   4.79044053535383E-18   0.00000000000000E+00   0.00000000000000E+00
      0.00000000000000E+00   0.00000000000000E+00   0.00000000000000E+00   0.00000000000000E+00   0.00000000000000E+00
      2.90679696133574E-18   0.00000000000000E+00   0.00000000000000E+00   0.00000000000000E+00   0.00000000000000E+00
     -2.88194539877823E-19  -7.80946748676193E-34  -2.88194539877824E-19  -1.21615036833703E-17   4.12178288197593E-02
      4.12178284427357E-02   0.00000000000000E+00   0.00000000000000E+00   1.78419719724864E-09   1.53030405060863E-34
      1.78419719724864E-09   4.46426618668076E-18
      5.34095073367482E-02
      0.00000000000000E+00   3.79159639094492E-10   0.00000000000000E+00   0.00000000000000E+00  -1.80933508706707E-09
      6.51780658500578E-34  -1.80933508706707E-09   4.78873964541712E-18   0.00000000000000E+00   0.00000000000000E+00
      0.00000000000000E+00   0.00000000000000E+00   0.00000000000000E+00   0.00000000000000E+00   0.00000000000000E+00
      2.85395752720500E-18   0.00000000000000E+00   0.00000000000000E+00   0.00000000000000E+00   0.00000000000000E+00
     -5.43439795517458E-19  -7.76767600827183E-34  -5.43439795517459E-19  -1.21609000937692E-17   4.59321763096035E-02
      4.59321759273984E-02   0.00000000000000E+00   0.00000000000000E+00   1.80933508761051E-09   1.24986942326605E-34
      1.80933508761051E-09   4.51820292114714E-18
      5.94029413548448E-02
      0.00000000000000E+00   3.84199624419792E-10   0.00000000000000E+00   0.00000000000000E+00  -1.83401460579716E-09
      6.36334289575086E-34  -1.83401460579716E-09   4.78688080672918E-18   0.00000000000000E+00   0.00000000000000E+00
      0.00000000000000E+00   0.00000000000000E+00   0.00000000000000E+00   0.00000000000000E+00   0.00000000000000E+00
      2.79622076385135E-18   0.00000000000000E+00   0.00000000000000E+00   0.00000000000000E+00   0.00000000000000E+00
     -8.01964940287449E-19  -7.42266459461479E-34  -8.01964940287449E-19  -1.21603371672787E-17   5.10865295651665E-02
      5.10865291779123E-02   0.00000000000000E+00   0.00000000000000E+00   1.83401460659912E-09   1.05932169886392E-34
      1.83401460659912E-09   4.57723559669813E-18
      6.59557625479636E-02
      0.00000000000000E+00   3.89508410824401E-10   0.00000000000000E+00   0.00000000000000E+00  -1.86009488918818E-09
      6.12720721349773E-34  -1.86009488918818E-09   4.78484934872896E-18   0.00000000000000E+00   0.00000000000000E+00
      0.00000000000000E+00   0.00000000000000E+00   0.00000000000000E+00   0.00000000000000E+00   0.00000000000000E+00
      2.73313284949322E-18   0.00000000000000E+00   0.00000000000000E+00   0.00000000000000E+00   0.00000000000000E+00
     -3.36743861891823E-20  -6.99734656904714E-34  -3.36743861891830E-20  -1.21598300371837E-17   5.67219557912487E-02
      5.67219553986855E-02   0.00000000000000E+00   0.00000000000000E+00   1.86009488922186E-09   8.70139355549414E-35
      1.86009488922186E-09   4.64184783896151E-18
      7.30764949111528E-02
      0.00000000000000E+00   3.95294323119351E-10   0.00000000000000E+00   0.00000000000000E+00  -1.88855639134483E-09
      6.02149088507266E-34  -1.88855639134483E-09   4.78264277504376E-18   0.00000000000000E+00   0.00000000000000E+00
      0.00000000000000E+00   0.00000000000000E+00   0.00000000000000E+00   0.00000000000000E+00   0.00000000000000E+00
      2.66461792829665E-18   0.00000000000000E+00   0.00000000000000E+00   0.00000000000000E+00   0.00000000000000E+00
     -7.65052319310542E-21  -6.72615224373592E-34  -7.65052319310609E-21  -1.21593982917445E-17   6.28457856235914E-02
      6.28457852252493E-02   0.00000000000000E+00   0.00000000000000E+00   1.88855639135248E-09   7.04661358663268E-35
      1.88855639135248E-09   4.71213758840410E-18
      8.08143574124850E-02
      0.00000000000000E+00   4.01669680973003E-10   0.00000000000000E+00   0.00000000000000E+00  -1.91993038170405E-09
      6.09319085670360E-34  -1.91993038170405E-09   4.78024598429332E-18   0.00000000000000E+00   0.00000000000000E+00
      0.00000000000000E+00   0.00000000000000E+00   0.00000000000000E+00   0.00000000000000E+00   0.00000000000000E+00
      2.59020857357504E-18   0.00000000000000E+00   0.00000000000000E+00   0.00000000000000E+00   0.00000000000000E+00
     -2.54170788276512E-20  -6.67528774746585E-34  -2.54170788276519E-20  -1.21590595897237E-17   6.95003473747371E-02
      6.95003469700356E-02   0.00000000000000E+00   0.00000000000000E+00   1.91993038172946E-09   5.82096890762244E-35
      1.91993038172946E-09   4.78860503185535E-18
      8.92228346639326E-02
      0.00000000000000E+00   4.08702195977930E-10   0.00000000000000E+00   0.00000000000000E+00  -1.95455146531613E-09
      6.03896811296454E-34  -1.95455146531613E-09   4.77764257126959E-18   0.00000000000000E+00   0.00000000000000E+00
      0.00000000000000E+00   0.00000000000000E+00   0.00000000000000E+00   0.00000000000000E+00   0.00000000000000E+00
      2.50939685461223E-18   0.00000000000000E+00   0.00000000000000E+00   0.00000000000000E+00   0.00000000000000E+00
     -1.16080670531839E-20  -6.49969643844549E-34  -1.16080670531845E-20  -1.21588334813126E-17   7.67316378109821E-02
      7.67316373992726E-02   0.00000000000000E+00   0.00000000000000E+00   1.95455146532774E-09   4.60728325480943E-35
      1.95455146532774E-09   4.87179405543081E-18
      9.83600466105058E-02
      0.00000000000000E+00   4.16437084211336E-10   0.00000000000000E+00   0.00000000000000E+00  -1.99264895966876E-09
      6.10175535842602E-34  -1.99264895966876E-09   4.77481471962636E-18   0.00000000000000E+00   0.00000000000000E+00
      0.00000000000000E+00   0.00000000000000E+00   0.00000000000000E+00   0.00000000000000E+00   0.00000000000000E+00
      2.42163091028658E-18   0.00000000000000E+00   0.00000000000000E+00   0.00000000000000E+00   0.00000000000000E+00
     -2.01952809518592E-20  -6.44328936379123E-34  -2.01952809518599E-20  -1.21587415772240E-17   8.45896400850350E-02
      8.45896396656185E-02   0.00000000000000E+00   0.00000000000000E+00   1.99264895968896E-09   3.41534005365203E-35
      1.99264895968896E-09   4.96229594731100E-18
      1.08289150259115E-01
      0.00000000000000E+00   4.24907352308517E-10   0.00000000000000E+00   0.00000000000000E+00  -2.03439798134547E-09
      6.12221619537196E-34  -2.03439798134547E-09   4.77174307971875E-18   0.00000000000000E+00   0.00000000000000E+00
      0.00000000000000E+00   0.00000000000000E+00   0.00000000000000E+00   0.00000000000000E+00   0.00000000000000E+00
      2.32631114044520E-18   0.00000000000000E+00   0.00000000000000E+00   0.00000000000000E+00   0.00000000000000E+00
     -1.98066526459979E-20  -6.38191877219212E-34  -1.98066526459985E-20  -1.21588075962681E-17   9.31286692228391E-02
      9.31286687949799E-02   0.00000000000000E+00   0.00000000000000E+00   2.03439798136527E-09   2.59702576820156E-35
      2.03439798136527E-09   5.06075337610411E-18
      1.18289150259115E-01
      0.00000000000000E+00   4.33501570518150E-10   0.00000000000000E+00   0.00000000000000E+00  -2.07679596559244E-09
      5.97115257269122E-34  -2.07679596559244E-09   4.76865075320072E-18   0.00000000000000E+00   0.00000000000000E+00
      0.00000000000000E+00   0.00000000000000E+00   0.00000000000000E+00   0.00000000000000E+00   0.00000000000000E+00
      2.23036042794464E-18   0.00000000000000E+00   0.00000000000000E+00   0.00000000000000E+00   0.00000000000000E+00
     -5.58080364885297E-21  -6.16045226311239E-34  -5.58080364885359E-21  -1.21590330200327E-17   1.01728669222839E-01
      1.01728668786417E-01   0.00000000000000E+00   0.00000000000000E+00   2.07679596559801E-09   1.89299690421178E-35
      2.07679596559801E-09   5.16002183888728E-18
      1.28289150259115E-01
      0.00000000000000E+00   4.42182237183851E-10   0.00000000000000E+00   0.00000000000000E+00  -2.11965967114630E-09
      5.90962105105511E-34  -2.11965967114630E-09   4.76555956759554E-18   0.00000000000000E+00   0.00000000000000E+00
      0.00000000000000E+00   0.00000000000000E+00   0.00000000000000E+00   0.00000000000000E+00   0.00000000000000E+00
      2.13445439953102E-18   0.00000000000000E+00   0.00000000000000E+00   0.00000000000000E+00   0.00000000000000E+00
     -1.61682689839910E-20  -6.05459171524774E-34  -1.61682689839916E-20  -1.21594033431016E-17   1.10328669222839E-01
      1.10328668777778E-01   0.00000000000000E+00   0.00000000000000E+00   2.11965967116246E-09   1.44970664192626E-35
      2.11965967116246E-09   5.25938937597504E-18
      1.38289150259115E-01
      0.00000000000000E+00   4.50970206432004E-10   0.00000000000000E+00   0.00000000000000E+00  -2.16308896390217E-09
      6.01657909904720E-34  -2.16308896390217E-09   4.76246942796704E-18   0.00000000000000E+00   0.00000000000000E+00
      0.00000000000000E+00   0.00000000000000E+00   0.00000000000000E+00   0.00000000000000E+00   0.00000000000000E+00
      2.03858856573902E-18   0.00000000000000E+00   0.00000000000000E+00   0.00000000000000E+00   0.00000000000000E+00
     -2.27259942420813E-20  -6.12430080273091E-34  -2.27259942420819E-20  -1.21599054870445E-17   1.18928669222839E-01
      1.18928668769041E-01   0.00000000000000E+00   0.00000000000000E+00   2.16308896392490E-09   1.07721703683707E-35
      2.16308896392490E-09   5.35884749333846E-18
      1.48289150259115E-01
      0.00000000000000E+00   4.59876440012561E-10   0.00000000000000E+00   0.00000000000000E+00  -2.20713560041328E-09
      6.17838521131649E-34  -2.20713560041328E-09   4.75938025461571E-18   0.00000000000000E+00   0.00000000000000E+00
      0.00000000000000E+00   0.00000000000000E+00   0.00000000000000E+00   0.00000000000000E+00   0.00000000000000E+00
      1.94275905724904E-18   0.00000000000000E+00   0.00000000000000E+00   0.00000000000000E+00   0.00000000000000E+00
     -5.40208258215445E-21  -6.26075873688362E-34  -5.40208258215507E-21  -1.21605277860189E-17   1.27528669222839E-01
      1.27528668760187E-01   0.00000000000000E+00   0.00000000000000E+00   2.20713560041868E-09   8.23735255671326E-36
      2.20713560041868E-09   5.45838847415417E-18
      1.58289150259115E-01
      0.00000000000000E+00   4.68904014455666E-10   0.00000000000000E+00   0.00000000000000E+00  -2.25181437356034E-09
      6.47059188386689E-34  -2.25181437356034E-09   4.75629197833424E-18   0.00000000000000E+00   0.00000000000000E+00
      0.00000000000000E+00   0.00000000000000E+00   0.00000000000000E+00   0.00000000000000E+00   0.00000000000000E+00
      1.84696252589441E-18   0.00000000000000E+00   0.00000000000000E+00   0.00000000000000E+00   0.00000000000000E+00
     -2.07177719046246E-20  -6.53235844771510E-34  -2.07177719046252E-20  -1.21612598002593E-17   1.36128669222839E-01
      1.36128668751206E-01   0.00000000000000E+00   0.00000000000000E+00   2.25181437358106E-09   6.17665638482053E-36
      2.25181437358106E-09   5.55800529603069E-18
      1.68289150259115E-01
      0.00000000000000E+00   4.78052156331952E-10   0.00000000000000E+00   0.00000000000000E+00  -2.29712057094538E-09
      6.51827282848666E-34  -2.29712057094538E-09   4.75320453689664E-18   0.00000000000000E+00   0.00000000000000E+00
      0.00000000000000E+00   0.00000000000000E+00   0.00000000000000E+00   0.00000000000000E+00   0.00000000000000E+00
      1.75119603722939E-18   0.00000000000000E+00   0.00000000000000E+00   0.00000000000000E+00   0.00000000000000E+00
     -1.78739190094860E-20  -6.56337464463869E-34  -1.78739190094866E-20  -1.21620921301495E-17   1.44728669222839E-01
      1.44728668742099E-01   0.00000000000000E+00   0.00000000000000E+00   2.29712057096326E-09   4.51018161520309E-36
      2.29712057096326E-09   5.65769155602344E-18
      1.78289150259115E-01
      0.00000000000000E+00   4.87318667812973E-10   0.00000000000000E+00   0.00000000000000E+00  -2.34304345442032E-09
      6.19031922585608E-34  -2.34304345442032E-09   4.75011787377384E-18   0.00000000000000E+00   0.00000000000000E+00
      0.00000000000000E+00   0.00000000000000E+00   0.00000000000000E+00   0.00000000000000E+00   0.00000000000000E+00
      1.65545698463564E-18   0.00000000000000E+00   0.00000000000000E+00   0.00000000000000E+00   0.00000000000000E+00
     -1.07808583605340E-20  -6.22350555059404E-34  -1.07808583605346E-20  -1.21630162646292E-17   1.53328669222839E-01
      1.53328668732870E-01   0.00000000000000E+00   0.00000000000000E+00   2.34304345443110E-09   3.31863247379520E-36
      2.34304345443110E-09   5.75744140621978E-18
      1.88289150259115E-01
      0.00000000000000E+00   4.96701736710755E-10   0.00000000000000E+00   0.00000000000000E+00  -2.38957467560304E-09