DF-ISE text

Info {
  version   = 1.0
  type      = xyplot
  datasets  = [
    "time"
    "source OuterVoltage" "source InnerVoltage" "source QuasiFermiPotential" "source DisplacementCurrent" "source eCurrent"
    "source hCurrent" "source TotalCurrent" "source Charge" "gate OuterVoltage" "gate InnerVoltage"
    "gate QuasiFermiPotential" "gate DisplacementCurrent" "gate eCurrent" "gate hCurrent" "gate TotalCurrent"
    "gate Charge" "substrate OuterVoltage" "substrate InnerVoltage" "substrate QuasiFermiPotential" "substrate DisplacementCurrent"
    "substrate eCurrent" "substrate hCurrent" "substrate TotalCurrent" "substrate Charge" "drain OuterVoltage"
    "drain InnerVoltage" "drain QuasiFermiPotential" "drain DisplacementCurrent" "drain eCurrent" "drain hCurrent"
    "drain TotalCurrent" "drain Charge" ]
  functions = [
    Time
    OuterVoltage InnerVoltage QuasiFermiPotential DisplacementCurrent eCurrent
    hCurrent TotalCurrent Charge OuterVoltage InnerVoltage
    QuasiFermiPotential DisplacementCurrent eCurrent hCurrent TotalCurrent
    Charge OuterVoltage InnerVoltage QuasiFermiPotential DisplacementCurrent
    eCurrent hCurrent TotalCurrent Charge OuterVoltage
    InnerVoltage QuasiFermiPotential DisplacementCurrent eCurrent hCurrent
    TotalCurrent Charge ]
}

Data {
      0.00000000000000E+00
      0.00000000000000E+00   0.00000000000000E+00   0.00000000000000E+00   0.00000000000000E+00  -3.14008069890266E-20
     -1.22022100472771E-34  -3.14008069890267E-20   4.52392282712626E-18   0.00000000000000E+00   0.00000000000000E+00
      0.00000000000000E+00   0.00000000000000E+00   0.00000000000000E+00   0.00000000000000E+00   0.00000000000000E+00
      3.48664055099513E-18   0.00000000000000E+00   0.00000000000000E+00   0.00000000000000E+00   0.00000000000000E+00
      3.75050679398100E-20   2.68197196924412E-34   3.75050679398103E-20  -1.18020683609198E-17   0.00000000000000E+00
      0.00000000000000E+00   0.00000000000000E+00   0.00000000000000E+00  -6.10426095078340E-21  -1.46175096451640E-34
     -6.10426095078355E-21   3.79150498279837E-18
      0.00000000000000E+00
      0.00000000000000E+00   0.00000000000000E+00   0.00000000000000E+00   0.00000000000000E+00  -5.67920241690830E-20
     -1.44494885174320E-34  -5.67920241690831E-20   4.52233765949263E-18   0.00000000000000E+00   0.00000000000000E+00
      0.00000000000000E+00   0.00000000000000E+00   0.00000000000000E+00   0.00000000000000E+00   0.00000000000000E+00
      3.48035345817621E-18   0.00000000000000E+00   0.00000000000000E+00   0.00000000000000E+00   0.00000000000000E+00
      8.21836340321896E-20   3.07283393230479E-34   8.21836340321899E-20  -1.17929244259317E-17   0.00000000000000E+00
      0.00000000000000E+00   0.00000000000000E+00   0.00000000000000E+00  -2.53916098631066E-20  -1.62788508056158E-34
     -2.53916098631068E-20   3.79023330826290E-18
      1.00000000000000E-03
      0.00000000000000E+00   3.14937071599527E-11   0.00000000000000E+00   0.00000000000000E+00  -1.28145553496088E-10
     -1.57905771577006E-34  -1.28145553496088E-10   4.52213540199390E-18   0.00000000000000E+00   0.00000000000000E+00
      0.00000000000000E+00   0.00000000000000E+00   0.00000000000000E+00   0.00000000000000E+00   0.00000000000000E+00
      3.47041466906494E-18   0.00000000000000E+00   0.00000000000000E+00   0.00000000000000E+00   0.00000000000000E+00
      9.31250159885501E-20   3.03221310524699E-34   9.31250159885504E-20  -1.17924070966539E-17   8.60000000000000E-04
      8.59999968377761E-04   0.00000000000000E+00   0.00000000000000E+00   1.28145553402963E-10  -1.45315538947693E-34
      1.28145553402963E-10   3.79985702559505E-18
      2.08666666666667E-03
      0.00000000000000E+00   6.37431920562458E-11   0.00000000000000E+00   0.00000000000000E+00  -2.59348354483864E-10
     -1.13649939675369E-34  -2.59348354483864E-10   4.52191567350274E-18   0.00000000000000E+00   0.00000000000000E+00
      0.00000000000000E+00   0.00000000000000E+00   0.00000000000000E+00   0.00000000000000E+00   0.00000000000000E+00
      3.45961750999686E-18   0.00000000000000E+00   0.00000000000000E+00   0.00000000000000E+00   0.00000000000000E+00
      1.17610509548176E-19   2.61144812833308E-34   1.17610509548177E-19  -1.17918522794374E-17   1.79453333333333E-03
      1.79453326933052E-03   0.00000000000000E+00   0.00000000000000E+00   2.59348354366253E-10  -1.47494873157939E-34
      2.59348354366253E-10   3.81031909593784E-18
      3.27475555555556E-03
      0.00000000000000E+00   9.66879416131999E-11   0.00000000000000E+00   0.00000000000000E+00  -3.93356568039994E-10
     -1.33410536405530E-34  -3.93356568039994E-10   4.52167550534343E-18   0.00000000000000E+00   0.00000000000000E+00
      0.00000000000000E+00   0.00000000000000E+00   0.00000000000000E+00   0.00000000000000E+00   0.00000000000000E+00
      3.44781612665302E-18   0.00000000000000E+00   0.00000000000000E+00   0.00000000000000E+00   0.00000000000000E+00
      2.61712563501131E-19   2.66934024075799E-34   2.61712563501131E-19  -1.17912543305972E-17   2.81628977777778E-03
      2.81628968069678E-03   0.00000000000000E+00   0.00000000000000E+00   3.93356567778282E-10  -1.33523487670269E-34
      3.93356567778282E-10   3.82176269860077E-18
      4.57373274074074E-03
      0.00000000000000E+00   1.30055885606487E-10   0.00000000000000E+00   0.00000000000000E+00  -5.29058958088334E-10
     -1.56798938751731E-34  -5.29058958088334E-10   4.52141300178350E-18   0.00000000000000E+00   0.00000000000000E+00
      0.00000000000000E+00   0.00000000000000E+00   0.00000000000000E+00   0.00000000000000E+00   0.00000000000000E+00
      3.43491740682428E-18   0.00000000000000E+00   0.00000000000000E+00   0.00000000000000E+00   0.00000000000000E+00
     -2.56019563348399E-19   2.90700531949334E-34  -2.56019563348399E-19  -1.17906107793706E-17   3.93341015703704E-03
      3.93341002645342E-03   0.00000000000000E+00   0.00000000000000E+00   5.29058958344354E-10  -1.33901593197603E-34
      5.29058958344354E-10   3.83428037076281E-18
      5.99394779654321E-03
      0.00000000000000E+00   1.63545556292363E-10   0.00000000000000E+00   0.00000000000000E+00  -6.65225954225838E-10
     -1.19849738811198E-34  -6.65225954225838E-10   4.52112609191271E-18   0.00000000000000E+00   0.00000000000000E+00
      0.00000000000000E+00   0.00000000000000E+00   0.00000000000000E+00   0.00000000000000E+00   0.00000000000000E+00
      3.42081964827698E-18   0.00000000000000E+00   0.00000000000000E+00   0.00000000000000E+00   0.00000000000000E+00
      1.43703099463624E-19   2.38423611742780E-34   1.43703099463625E-19  -1.17899191895844E-17   5.15479510502716E-03
      5.15479494081917E-03   0.00000000000000E+00   0.00000000000000E+00   6.65225954082135E-10  -1.18573872931582E-34
      6.65225954082135E-10   3.84797344939470E-18
      7.54671625755391E-03
      0.00000000000000E+00   1.96825421182668E-10   0.00000000000000E+00   0.00000000000000E+00  -8.00507104966531E-10
     -1.71275529561652E-34  -8.00507104966531E-10   4.52081251351745E-18   0.00000000000000E+00   0.00000000000000E+00
      0.00000000000000E+00   0.00000000000000E+00   0.00000000000000E+00   0.00000000000000E+00   0.00000000000000E+00
      3.40541177096575E-18   0.00000000000000E+00   0.00000000000000E+00   0.00000000000000E+00   0.00000000000000E+00
      1.48009711144216E-19   3.06020723830202E-34   1.48009711144217E-19  -1.17891772035964E-17   6.49017598149636E-03
      6.49017578387501E-03   0.00000000000000E+00   0.00000000000000E+00   8.00507104818521E-10  -1.34745194268550E-34
      8.00507104818521E-10   3.86295291911319E-18
      9.24440977492561E-03
      0.00000000000000E+00   2.29537779242645E-10   0.00000000000000E+00   0.00000000000000E+00  -9.33446916434221E-10
     -1.50982891020089E-34  -9.33446916434221E-10   4.52046979544319E-18   0.00000000000000E+00   0.00000000000000E+00
      0.00000000000000E+00   0.00000000000000E+00   0.00000000000000E+00   0.00000000000000E+00   0.00000000000000E+00
      3.38857245725140E-18   0.00000000000000E+00   0.00000000000000E+00   0.00000000000000E+00   0.00000000000000E+00
     -3.51048490287892E-20   2.63727646674328E-34  -3.51048490287890E-20  -1.17883825956836E-17   7.95019240643603E-03
      7.95019217597143E-03   0.00000000000000E+00   0.00000000000000E+00   9.33446916469326E-10  -1.12744755654239E-34
      9.33446916469326E-10   3.87934034298896E-18
      1.11005546872520E-02
      0.00000000000000E+00   2.61305790615093E-10   0.00000000000000E+00   0.00000000000000E+00  -1.06251471815004E-09
     -1.47995086942810E-34  -1.06251471815004E-09   4.52009523830289E-18   0.00000000000000E+00   0.00000000000000E+00
      0.00000000000000E+00   0.00000000000000E+00   0.00000000000000E+00   0.00000000000000E+00   0.00000000000000E+00
      3.37016921318880E-18   0.00000000000000E+00   0.00000000000000E+00   0.00000000000000E+00   0.00000000000000E+00
     -2.87453559527705E-20   2.58419584615581E-34  -2.87453559527702E-20  -1.17875333358651E-17   9.54647703103672E-03
      9.54647676867714E-03   0.00000000000000E+00   0.00000000000000E+00   1.06251471817879E-09  -1.10424497672771E-34
      1.06251471817879E-09   3.89726888437345E-18
      1.31299397913955E-02
      0.00000000000000E+00   2.91744407044532E-10   0.00000000000000E+00   0.00000000000000E+00  -1.18614881295133E-09
     -1.51033265778535E-34  -1.18614881295133E-09   4.51968589335690E-18   0.00000000000000E+00   0.00000000000000E+00
      0.00000000000000E+00   0.00000000000000E+00   0.00000000000000E+00   0.00000000000000E+00   0.00000000000000E+00
      3.35005734283366E-18   0.00000000000000E+00   0.00000000000000E+00   0.00000000000000E+00   0.00000000000000E+00
      3.23892607987479E-19   2.55891012704682E-34   3.23892607987479E-19  -1.17866276646133E-17   1.12917482206002E-02
      1.12917479276803E-02   0.00000000000000E+00   0.00000000000000E+00   1.18614881262744E-09  -1.04857746926147E-34
      1.18614881262744E-09   3.91688442842273E-18
      1.53487341719258E-02
      0.00000000000000E+00   3.20474230527698E-10   0.00000000000000E+00   0.00000000000000E+00  -1.30281371175372E-09
     -1.44780512198467E-34  -1.30281371175372E-09   4.51923853939790E-18   0.00000000000000E+00   0.00000000000000E+00
      0.00000000000000E+00   0.00000000000000E+00   0.00000000000000E+00   0.00000000000000E+00   0.00000000000000E+00
      3.32807882785903E-18   0.00000000000000E+00   0.00000000000000E+00   0.00000000000000E+00   0.00000000000000E+00
     -7.18010563824148E-21   2.46159644806080E-34  -7.18010563824123E-21  -1.17856641804623E-17   1.31999113878562E-02
      1.31999110660914E-02   0.00000000000000E+00   0.00000000000000E+00   1.30281371176090E-09  -1.01379132607613E-34
      1.30281371176090E-09   3.93834681320534E-18
      1.77746160279722E-02
      0.00000000000000E+00   3.47138524399577E-10   0.00000000000000E+00   0.00000000000000E+00  -1.41106976061989E-09
     -1.59408257031529E-34  -1.41106976061989E-09   4.51874965743373E-18   0.00000000000000E+00   0.00000000000000E+00
      0.00000000000000E+00   0.00000000000000E+00   0.00000000000000E+00   0.00000000000000E+00   0.00000000000000E+00
      3.30406110322452E-18   0.00000000000000E+00   0.00000000000000E+00   0.00000000000000E+00   0.00000000000000E+00
     -8.57355861830893E-20   2.43741091539547E-34  -8.57355861830891E-20  -1.17846419413724E-17   1.52861697840561E-02
      1.52861694355196E-02   0.00000000000000E+00   0.00000000000000E+00   1.41106976070562E-09  -8.43328345080186E-35
      1.41106976070562E-09   3.96183118071414E-18
      2.04269135239163E-02
      0.00000000000000E+00   3.71423699211989E-10   0.00000000000000E+00   0.00000000000000E+00  -1.50965659626931E-09
     -1.55542107301545E-34  -1.50965659626931E-09   4.51821540291818E-18   0.00000000000000E+00   0.00000000000000E+00
      0.00000000000000E+00   0.00000000000000E+00   0.00000000000000E+00   0.00000000000000E+00   0.00000000000000E+00
      3.27781571700231E-18   0.00000000000000E+00   0.00000000000000E+00   0.00000000000000E+00   0.00000000000000E+00
     -1.19942150568369E-19   2.29267037283557E-34  -1.19942150568369E-19  -1.17835605787045E-17   1.75671456305680E-02
      1.75671452576478E-02   0.00000000000000E+00   0.00000000000000E+00   1.50965659638925E-09  -7.37249299820114E-35
      1.50965659638925E-09   3.98752945878401E-18
      2.33267587861485E-02
      0.00000000000000E+00   3.93082554854742E-10   0.00000000000000E+00   0.00000000000000E+00  -1.59758752407771E-09
     -1.61863740079719E-34  -1.59758752407771E-09   4.51763157527530E-18   0.00000000000000E+00   0.00000000000000E+00
      0.00000000000000E+00   0.00000000000000E+00   0.00000000000000E+00   0.00000000000000E+00   0.00000000000000E+00
      3.24913686200062E-18   0.00000000000000E+00   0.00000000000000E+00   0.00000000000000E+00   0.00000000000000E+00
     -3.02626216898834E-19   2.41415359177090E-34  -3.02626216898833E-19  -1.17824204231402E-17   2.00610125560877E-02
      2.00610121614197E-02   0.00000000000000E+00   0.00000000000000E+00   1.59758752438034E-09  -7.95516190973704E-35
      1.59758752438034E-09   4.01565198586432E-18
      2.64972562728556E-02
      0.00000000000000E+00   4.11956815832468E-10   0.00000000000000E+00   0.00000000000000E+00  -1.67424139212198E-09
     -1.37792465946555E-34  -1.67424139212198E-09   4.51699358453570E-18   0.00000000000000E+00   0.00000000000000E+00
      0.00000000000000E+00   0.00000000000000E+00   0.00000000000000E+00   0.00000000000000E+00   0.00000000000000E+00
      3.21779977307910E-18   0.00000000000000E+00   0.00000000000000E+00   0.00000000000000E+00   0.00000000000000E+00
     -3.74353447342756E-19   2.08548920311209E-34  -3.74353447342756E-19  -1.17812226514500E-17   2.27876403946559E-02
      2.27876399810349E-02   0.00000000000000E+00   0.00000000000000E+00   1.67424139249633E-09  -7.07564543646541E-35
      1.67424139249633E-09   4.04642929383516E-18
      2.99636668583222E-02
      0.00000000000000E+00   4.28000956869987E-10   0.00000000000000E+00   0.00000000000000E+00  -1.73945879741351E-09
     -1.43083380574527E-34  -1.73945879741351E-09   4.51629641464208E-18   0.00000000000000E+00   0.00000000000000E+00
      0.00000000000000E+00   0.00000000000000E+00   0.00000000000000E+00   0.00000000000000E+00   0.00000000000000E+00
      3.18355896575904E-18   0.00000000000000E+00   0.00000000000000E+00   0.00000000000000E+00   0.00000000000000E+00
     -8.65679085400292E-19   2.02938816862022E-34  -8.65679085400292E-19  -1.17799694405585E-17   2.57687534981571E-02
      2.57687530684238E-02   0.00000000000000E+00   0.00000000000000E+00   1.73945879827919E-09  -5.98554362874950E-35
      1.73945879827919E-09   4.08011406015739E-18
      3.37536090984323E-02
      0.00000000000000E+00   4.41302131419400E-10   0.00000000000000E+00   0.00000000000000E+00  -1.79362210246526E-09
     -1.46373768407747E-34  -1.79362210246526E-09   4.51553458320745E-18   0.00000000000000E+00   0.00000000000000E+00
      0.00000000000000E+00   0.00000000000000E+00   0.00000000000000E+00   0.00000000000000E+00   0.00000000000000E+00
      3.14614630470892E-18   0.00000000000000E+00   0.00000000000000E+00   0.00000000000000E+00   0.00000000000000E+00
     -1.07460643775369E-18   2.04216563579205E-34  -1.07460643775369E-18  -1.17786641335407E-17   2.90281038246517E-02
      2.90281033815601E-02   0.00000000000000E+00   0.00000000000000E+00   1.79362210353986E-09  -5.78427951714579E-35
      1.79362210353986E-09   4.11698324562430E-18
      3.78972792809526E-02
      0.00000000000000E+00   4.52093419813212E-10   0.00000000000000E+00   0.00000000000000E+00  -1.83770706539141E-09
     -1.64459283843781E-34  -1.83770706539141E-09   4.51470209738550E-18   0.00000000000000E+00   0.00000000000000E+00
      0.00000000000000E+00   0.00000000000000E+00   0.00000000000000E+00   0.00000000000000E+00   0.00000000000000E+00
      3.10526888252667E-18   0.00000000000000E+00   0.00000000000000E+00   0.00000000000000E+00   0.00000000000000E+00
     -1.57548845652369E-18   2.18738273555677E-34  -1.57548845652369E-18  -1.17773114136385E-17   3.25916601816192E-02
      3.25916597276905E-02   0.00000000000000E+00   0.00000000000000E+00   1.83770706696690E-09  -5.42789897118958E-35
      1.83770706696690E-09   4.15734043372635E-18
      4.24276920138415E-02
      0.00000000000000E+00   4.60752141842399E-10   0.00000000000000E+00   0.00000000000000E+00  -1.87327345440178E-09
     -1.37881584607848E-34  -1.87327345440178E-09   4.51379240564687E-18   0.00000000000000E+00   0.00000000000000E+00
      0.00000000000000E+00   0.00000000000000E+00   0.00000000000000E+00   0.00000000000000E+00   0.00000000000000E+00
      3.06060669130212E-18   0.00000000000000E+00   0.00000000000000E+00   0.00000000000000E+00   0.00000000000000E+00
     -3.34791184571661E-18   1.82364586918332E-34  -3.34791184571661E-18  -1.17759174856223E-17   3.64878151319037E-02
      3.64878146692822E-02   0.00000000000000E+00   0.00000000000000E+00   1.87327345774969E-09  -4.44830023104849E-35
      1.87327345774969E-09   4.20151838867330E-18
      4.73809432684667E-02
      0.00000000000000E+00   4.67777937379563E-10   0.00000000000000E+00   0.00000000000000E+00  -1.90237206922771E-09
     -1.31154621868870E-34  -1.90237206922771E-09   4.51279834522326E-18   0.00000000000000E+00   0.00000000000000E+00
      0.00000000000000E+00   0.00000000000000E+00   0.00000000000000E+00   0.00000000000000E+00   0.00000000000000E+00
      3.01181006438118E-18   0.00000000000000E+00   0.00000000000000E+00   0.00000000000000E+00   0.00000000000000E+00
     -4.90535190970955E-18   1.64169463073859E-34  -4.90535190970955E-18  -1.17744902587411E-17   4.07476112108814E-02
      4.07476107412128E-02   0.00000000000000E+00   0.00000000000000E+00   1.90237207413307E-09  -3.30148412049892E-35
      1.90237207413307E-09   4.24988184913671E-18
      5.27964979735236E-02
      0.00000000000000E+00   4.73746871923926E-10   0.00000000000000E+00   0.00000000000000E+00  -1.92735537669969E-09
     -1.59788983969078E-34  -1.92735537669969E-09   4.51171208503659E-18   0.00000000000000E+00   0.00000000000000E+00
      0.00000000000000E+00   0.00000000000000E+00   0.00000000000000E+00   0.00000000000000E+00   0.00000000000000E+00
      2.95849687066144E-18   0.00000000000000E+00   0.00000000000000E+00   0.00000000000000E+00   0.00000000000000E+00
     -7.07184837756639E-18   1.91060600449749E-34  -7.07184837756639E-18  -1.17730395326423E-17   4.54049882572303E-02
      4.54049877815858E-02   0.00000000000000E+00   0.00000000000000E+00   1.92735538377154E-09  -3.12716164806707E-35
      1.92735538377154E-09   4.30283057694427E-18
      5.87175044510525E-02
      0.00000000000000E+00   4.79245462365540E-10   0.00000000000000E+00   0.00000000000000E+00  -1.95061100104631E-09
     -1.50997105256790E-34  -1.95061100104631E-09   4.51052506422333E-18   0.00000000000000E+00   0.00000000000000E+00
      0.00000000000000E+00   0.00000000000000E+00   0.00000000000000E+00   0.00000000000000E+00   0.00000000000000E+00
      2.90024945314497E-18   0.00000000000000E+00   0.00000000000000E+00   0.00000000000000E+00   0.00000000000000E+00
     -7.96810457054541E-20   1.80347125189485E-34  -7.96810457054539E-20  -1.17715771994468E-17   5.04970538279052E-02
      5.04970533467708E-02   0.00000000000000E+00   0.00000000000000E+00   1.95061100112600E-09  -2.93500199326953E-35
      1.95061100112600E-09   4.36080268207847E-18
      6.51516648233006E-02
      0.00000000000000E+00   4.84753305714208E-10   0.00000000000000E+00   0.00000000000000E+00  -1.97407787812067E-09
     -1.64373285525228E-34  -1.97407787812067E-09   4.50923583378873E-18   0.00000000000000E+00   0.00000000000000E+00
      0.00000000000000E+00   0.00000000000000E+00   0.00000000000000E+00   0.00000000000000E+00   0.00000000000000E+00
      2.83699920234864E-18   0.00000000000000E+00   0.00000000000000E+00   0.00000000000000E+00   0.00000000000000E+00
     -1.91386472964876E-19   1.83815879130379E-34  -1.91386472964876E-19  -1.17701259510181E-17   5.60304317480385E-02
      5.60304312614218E-02   0.00000000000000E+00   0.00000000000000E+00   1.97407787831206E-09  -1.94425936051510E-35
      1.97407787831206E-09   4.42389091488077E-18
      7.21434524278101E-02
      0.00000000000000E+00   4.90622466259051E-10   0.00000000000000E+00   0.00000000000000E+00  -1.99916846626379E-09
     -1.61192887514817E-34  -1.99916846626379E-09   4.50783558091945E-18   0.00000000000000E+00   0.00000000000000E+00
      0.00000000000000E+00   0.00000000000000E+00   0.00000000000000E+00   0.00000000000000E+00   0.00000000000000E+00
      2.76831607486705E-18   0.00000000000000E+00   0.00000000000000E+00   0.00000000000000E+00   0.00000000000000E+00
      1.34481235614225E-20   1.76603190854353E-34   1.34481235614227E-20  -1.17687013205904E-17   6.20433690879167E-02
      6.20433685954723E-02   0.00000000000000E+00   0.00000000000000E+00   1.99916846625034E-09  -1.54103033395365E-35
      1.99916846625034E-09   4.49254966480390E-18
      7.97411949580438E-02
      0.00000000000000E+00   4.97045719800397E-10   0.00000000000000E+00   0.00000000000000E+00  -2.02665407683570E-09
     -1.45726931677767E-34  -2.02665407683570E-09   4.50631473415558E-18   0.00000000000000E+00   0.00000000000000E+00
      0.00000000000000E+00   0.00000000000000E+00   0.00000000000000E+00   0.00000000000000E+00   0.00000000000000E+00
      2.69373282320491E-18   0.00000000000000E+00   0.00000000000000E+00   0.00000000000000E+00   0.00000000000000E+00
      9.53633603072290E-20   1.61805041324064E-34   9.53633603072292E-20  -1.17673211015663E-17   6.85774276639177E-02
      6.85774271651089E-02   0.00000000000000E+00   0.00000000000000E+00   2.02665407674033E-09  -1.60781096462967E-35
      2.02665407674033E-09   4.56727354420582E-18
      8.79974085075645E-02
      0.00000000000000E+00   5.04130354497882E-10   0.00000000000000E+00   0.00000000000000E+00  -2.05697990852946E-09
     -1.24573880322343E-34  -2.05697990852946E-09   4.50466289725044E-18   0.00000000000000E+00   0.00000000000000E+00
      0.00000000000000E+00   0.00000000000000E+00   0.00000000000000E+00   0.00000000000000E+00   0.00000000000000E+00
      2.61274178245886E-18   0.00000000000000E+00   0.00000000000000E+00   0.00000000000000E+00   0.00000000000000E+00
     -2.31075323216697E-19   1.37617908972083E-34  -2.31075323216697E-19  -1.17660055223008E-17   7.56777713165054E-02
      7.56777708106903E-02   0.00000000000000E+00   0.00000000000000E+00   2.05697990876053E-09  -1.30440286497395E-35
      2.05697990876053E-09   4.64860084259146E-18
      9.69691605647102E-02
      0.00000000000000E+00   5.11918212832815E-10   0.00000000000000E+00   0.00000000000000E+00  -2.09033218282240E-09
     -1.19184727107422E-34  -2.09033218282240E-09   4.50286878221981E-18   0.00000000000000E+00   0.00000000000000E+00
      0.00000000000000E+00   0.00000000000000E+00   0.00000000000000E+00   0.00000000000000E+00   0.00000000000000E+00
      2.52479142921181E-18   0.00000000000000E+00   0.00000000000000E+00   0.00000000000000E+00   0.00000000000000E+00
     -1.73534154239806E-19   1.28485215017101E-34  -1.73534154239806E-19  -1.17647774656679E-17   8.33934780856508E-02
      8.33934775721415E-02   0.00000000000000E+00   0.00000000000000E+00   2.09033218299593E-09  -9.30048790967891E-36
      2.09033218299593E-09   4.73711725423624E-18
      1.06718464466809E-01
      0.00000000000000E+00   5.20416863892067E-10   0.00000000000000E+00   0.00000000000000E+00  -2.12676459749356E-09
     -1.46338806894676E-34  -2.12676459749356E-09   4.50092013091176E-18   0.00000000000000E+00   0.00000000000000E+00
      0.00000000000000E+00   0.00000000000000E+00   0.00000000000000E+00   0.00000000000000E+00   0.00000000000000E+00
      2.42928257303054E-18   0.00000000000000E+00   0.00000000000000E+00   0.00000000000000E+00   0.00000000000000E+00
      1.01317425104229E-19   1.52775854137177E-34   1.01317425104229E-19  -1.17636625964046E-17   9.17778794414554E-02
      9.17778789195550E-02   0.00000000000000E+00   0.00000000000000E+00   2.12676459739225E-09  -6.43704724250085E-36
      2.12676459739225E-09   4.83345989246228E-18
      1.16718464466809E-01
      0.00000000000000E+00   5.29150938225063E-10   0.00000000000000E+00   0.00000000000000E+00  -2.16426014926886E-09
     -1.45998866395093E-34  -2.16426014926886E-09   4.49892231215489E-18   0.00000000000000E+00   0.00000000000000E+00
      0.00000000000000E+00   0.00000000000000E+00   0.00000000000000E+00   0.00000000000000E+00   0.00000000000000E+00
      2.33137994741402E-18   0.00000000000000E+00   0.00000000000000E+00   0.00000000000000E+00   0.00000000000000E+00
     -6.01896307633964E-20   1.51292310692148E-34  -6.01896307633963E-20  -1.17627375985463E-17   1.00377879441455E-01
      1.00377878910943E-01   0.00000000000000E+00   0.00000000000000E+00   2.16426014932904E-09  -5.29344429705509E-36
      2.16426014932904E-09   4.93243533897743E-18
      1.26718464466809E-01
      0.00000000000000E+00   5.37919342680125E-10   0.00000000000000E+00   0.00000000000000E+00  -2.20195920584744E-09
     -1.12000439237822E-34  -2.20195920584744E-09   4.49692535886444E-18   0.00000000000000E+00   0.00000000000000E+00
      0.00000000000000E+00   0.00000000000000E+00   0.00000000000000E+00   0.00000000000000E+00   0.00000000000000E+00
      2.23353391769875E-18   0.00000000000000E+00   0.00000000000000E+00   0.00000000000000E+00   0.00000000000000E+00
     -1.97147323336099E-19   1.15808391410336E-34  -1.97147323336099E-19  -1.17620158492387E-17   1.08977879441455E-01
      1.08977878902312E-01   0.00000000000000E+00   0.00000000000000E+00   2.20195920604458E-09  -3.80795217251442E-36
      2.20195920604458E-09   5.03155657267546E-18
      1.36718464466809E-01
      0.00000000000000E+00   5.46742362338036E-10   0.00000000000000E+00   0.00000000000000E+00  -2.23994473786987E-09
     -1.25174334177060E-34  -2.23994473786987E-09   4.49492919690248E-18   0.00000000000000E+00   0.00000000000000E+00
      0.00000000000000E+00   0.00000000000000E+00   0.00000000000000E+00   0.00000000000000E+00   0.00000000000000E+00
      2.13573896609274E-18   0.00000000000000E+00   0.00000000000000E+00   0.00000000000000E+00   0.00000000000000E+00
      2.68814108524982E-20   1.28266654793572E-34   2.68814108524983E-20  -1.17614810418166E-17   1.17577879441455E-01
      1.17577878893629E-01   0.00000000000000E+00   0.00000000000000E+00   2.23994473784299E-09  -3.09232061651216E-36
      2.23994473784299E-09   5.13081287882143E-18
      1.46718464466809E-01
      0.00000000000000E+00   5.55632495286565E-10   0.00000000000000E+00   0.00000000000000E+00  -2.27826665428512E-09
     -1.33924868727518E-34  -2.27826665428512E-09   4.49293376435696E-18   0.00000000000000E+00   0.00000000000000E+00
      0.00000000000000E+00   0.00000000000000E+00   0.00000000000000E+00   0.00000000000000E+00   0.00000000000000E+00
      2.03799036208644E-18   0.00000000000000E+00   0.00000000000000E+00   0.00000000000000E+00   0.00000000000000E+00
     -1.19805737072408E-19   1.35888254192878E-34  -1.19805737072407E-19  -1.17611185755257E-17   1.26177879441455E-01
      1.26177878884868E-01   0.00000000000000E+00   0.00000000000000E+00   2.27826665440493E-09  -1.96338546535941E-36
      2.27826665440493E-09   5.23019444908235E-18
      1.56718464466809E-01
      0.00000000000000E+00   5.64595486323980E-10   0.00000000000000E+00   0.00000000000000E+00  -2.31694714028709E-09
     -1.54685342163749E-34  -2.31694714028709E-09   4.49093900651764E-18   0.00000000000000E+00   0.00000000000000E+00
      0.00000000000000E+00   0.00000000000000E+00   0.00000000000000E+00   0.00000000000000E+00   0.00000000000000E+00
      1.94028396676642E-18   0.00000000000000E+00   0.00000000000000E+00   0.00000000000000E+00   0.00000000000000E+00
      4.50851618337875E-20   1.56289184404017E-34   4.50851618337876E-20  -1.17609152544074E-17   1.34777879441455E-01
      1.34777878876022E-01   0.00000000000000E+00   0.00000000000000E+00   2.31694714024200E-09  -1.60384224026796E-36
      2.31694714024200E-09   5.32969228112338E-18
      1.66718464466809E-01
      0.00000000000000E+00   5.73632795061253E-10   0.00000000000000E+00   0.00000000000000E+00  -2.35599063504970E-09
     -1.39882465315225E-34  -2.35599063504970E-09   4.48894487341194E-18   0.00000000000000E+00   0.00000000000000E+00
      0.00000000000000E+00   0.00000000000000E+00   0.00000000000000E+00   0.00000000000000E+00   0.00000000000000E+00
      1.84261609768033E-18   0.00000000000000E+00   0.00000000000000E+00   0.00000000000000E+00   0.00000000000000E+00
      4.16878389889773E-20   1.41074754253049E-34   4.16878389889774E-20  -1.17608590651860E-17   1.43377879441455E-01
      1.43377878867095E-01   0.00000000000000E+00   0.00000000000000E+00   2.35599063500802E-09  -1.19228893782424E-36
      2.35599063500802E-09   5.42929809409367E-18
      1.76718464466809E-01
      0.00000000000000E+00   5.82743554376011E-10   0.00000000000000E+00   0.00000000000000E+00  -2.39539255289582E-09
     -1.47408212455047E-34  -2.39539255289582E-09   4.48695131918211E-18   0.00000000000000E+00   0.00000000000000E+00
      0.00000000000000E+00   0.00000000000000E+00   0.00000000000000E+00   0.00000000000000E+00   0.00000000000000E+00
      1.74498346555505E-18   0.00000000000000E+00   0.00000000000000E+00   0.00000000000000E+00   0.00000000000000E+00
     -1.36687337399506E-19   1.48257064631076E-34  -1.36687337399506E-19  -1.17609390453101E-17   1.51977879441455E-01
      1.51977878858096E-01   0.00000000000000E+00   0.00000000000000E+00   2.39539255303251E-09  -8.48852176028545E-37
      2.39539255303251E-09   5.52900426057292E-18
      1.86718464466809E-01
      0.00000000000000E+00   5.91926219115616E-10   0.00000000000000E+00   0.00000000000000E+00  -2.43514654023902E-09