DF-ISE text

Info {
  version   = 1.0
  type      = xyplot
  datasets  = [
    "time"
    "source OuterVoltage" "source InnerVoltage" "source QuasiFermiPotential" "source DisplacementCurrent" "source eCurrent"
    "source hCurrent" "source TotalCurrent" "source Charge" "gate OuterVoltage" "gate InnerVoltage"
    "gate QuasiFermiPotential" "gate DisplacementCurrent" "gate eCurrent" "gate hCurrent" "gate TotalCurrent"
    "gate Charge" "substrate OuterVoltage" "substrate InnerVoltage" "substrate QuasiFermiPotential" "substrate DisplacementCurrent"
    "substrate eCurrent" "substrate hCurrent" "substrate TotalCurrent" "substrate Charge" "drain OuterVoltage"
    "drain InnerVoltage" "drain QuasiFermiPotential" "drain DisplacementCurrent" "drain eCurrent" "drain hCurrent"
    "drain TotalCurrent" "drain Charge" ]
  functions = [
    Time
    OuterVoltage InnerVoltage QuasiFermiPotential DisplacementCurrent eCurrent
    hCurrent TotalCurrent Charge OuterVoltage InnerVoltage
    QuasiFermiPotential DisplacementCurrent eCurrent hCurrent TotalCurrent
    Charge OuterVoltage InnerVoltage QuasiFermiPotential DisplacementCurrent
    eCurrent hCurrent TotalCurrent Charge OuterVoltage
    InnerVoltage QuasiFermiPotential DisplacementCurrent eCurrent hCurrent
    TotalCurrent Charge ]
}

Data {
      0.00000000000000E+00
      0.00000000000000E+00   0.00000000000000E+00   0.00000000000000E+00   0.00000000000000E+00   2.72824228861893E-20
     -1.03244591873821E-34   2.72824228861892E-20   4.16150122241611E-18   0.00000000000000E+00   0.00000000000000E+00
      0.00000000000000E+00   0.00000000000000E+00   0.00000000000000E+00   0.00000000000000E+00   0.00000000000000E+00
      3.21306787470142E-18   0.00000000000000E+00   0.00000000000000E+00   0.00000000000000E+00   0.00000000000000E+00
     -2.80152278940754E-20   2.31127926846159E-34  -2.80152278940751E-20  -1.07692052884936E-17   0.00000000000000E+00
      0.00000000000000E+00   0.00000000000000E+00   0.00000000000000E+00   7.32805007886075E-22  -1.27883334972338E-34
      7.32805007885947E-22   3.39463619137611E-18
      0.00000000000000E+00
      0.00000000000000E+00   0.00000000000000E+00   0.00000000000000E+00   0.00000000000000E+00   1.28736664745816E-19
     -1.27144539349950E-34   1.28736664745816E-19   4.15991654180980E-18   0.00000000000000E+00   0.00000000000000E+00
      0.00000000000000E+00   0.00000000000000E+00   0.00000000000000E+00   0.00000000000000E+00   0.00000000000000E+00
      3.20671542000252E-18   0.00000000000000E+00   0.00000000000000E+00   0.00000000000000E+00   0.00000000000000E+00
     -9.87654422241149E-20   2.64578579425628E-34  -9.87654422241146E-20  -1.07600066492932E-17   0.00000000000000E+00
      0.00000000000000E+00   0.00000000000000E+00   0.00000000000000E+00  -2.99712225217018E-20  -1.37434040075677E-34
     -2.99712225217019E-20   3.39337468748086E-18
      1.00000000000000E-03
      0.00000000000000E+00   3.73626381917103E-11   0.00000000000000E+00   0.00000000000000E+00  -1.45806964686229E-10
     -1.10227598413748E-34  -1.45806964686229E-10   4.15975490794092E-18   0.00000000000000E+00   0.00000000000000E+00
      0.00000000000000E+00   0.00000000000000E+00   0.00000000000000E+00   0.00000000000000E+00   0.00000000000000E+00
      3.19742108829651E-18   0.00000000000000E+00   0.00000000000000E+00   0.00000000000000E+00   0.00000000000000E+00
     -7.44836507869241E-18   2.42225202091646E-34  -7.44836507869241E-18  -1.07595407176353E-17   8.60000000000000E-04
      8.59999962548559E-04   0.00000000000000E+00   0.00000000000000E+00   1.45806972134594E-10  -1.31997603677898E-34
      1.45806972134594E-10   3.40236472139795E-18
      2.08666666666667E-03
      0.00000000000000E+00   7.56484570184688E-11   0.00000000000000E+00   0.00000000000000E+00  -2.95206706557328E-10
     -1.28374728892046E-34  -2.95206706557328E-10   4.15957931622857E-18   0.00000000000000E+00   0.00000000000000E+00
      0.00000000000000E+00   0.00000000000000E+00   0.00000000000000E+00   0.00000000000000E+00   0.00000000000000E+00
      3.18732445035457E-18   0.00000000000000E+00   0.00000000000000E+00   0.00000000000000E+00   0.00000000000000E+00
      1.40980197169245E-15   2.62748344288627E-34   1.40980197169245E-15  -1.07590416846653E-17   1.79453333333333E-03
      1.79453325750527E-03   0.00000000000000E+00   0.00000000000000E+00   2.95205296755357E-10  -1.34373615396581E-34
      2.95205296755357E-10   3.41213791808225E-18
      3.28200000000000E-03
      0.00000000000000E+00   1.15023348222260E-10   0.00000000000000E+00   0.00000000000000E+00  -4.48842426795195E-10
     -1.21102679511984E-34  -4.48842426795195E-10   4.15938622529721E-18   0.00000000000000E+00   0.00000000000000E+00
      0.00000000000000E+00   0.00000000000000E+00   0.00000000000000E+00   0.00000000000000E+00   0.00000000000000E+00
      3.17622193778879E-18   0.00000000000000E+00   0.00000000000000E+00   0.00000000000000E+00   0.00000000000000E+00
      2.04023197187410E-15   2.48174957906824E-34   2.04023197187410E-15  -1.07585013916011E-17   2.82252000000000E-03
      2.82251988470429E-03   0.00000000000000E+00   0.00000000000000E+00   4.48840386563223E-10  -1.27072278394839E-34
      4.48840386563223E-10   3.42289322851512E-18
      4.59686666666667E-03
      0.00000000000000E+00   1.55158465573066E-10   0.00000000000000E+00   0.00000000000000E+00  -6.05427764763804E-10
     -1.14820219302280E-34  -6.05427764763804E-10   4.15917389657162E-18   0.00000000000000E+00   0.00000000000000E+00
      0.00000000000000E+00   0.00000000000000E+00   0.00000000000000E+00   0.00000000000000E+00   0.00000000000000E+00
      3.16401367629997E-18   0.00000000000000E+00   0.00000000000000E+00   0.00000000000000E+00   0.00000000000000E+00
     -2.85797459733994E-19   2.41751922170126E-34  -2.85797459733994E-19  -1.07579173790475E-17   3.95330533333333E-03
      3.95330517780871E-03   0.00000000000000E+00   0.00000000000000E+00   6.05427765049602E-10  -1.26931702867846E-34
      6.05427765049602E-10   3.43472980617590E-18
      6.03445422222222E-03
      0.00000000000000E+00   1.95443280364772E-10   0.00000000000000E+00   0.00000000000000E+00  -7.62579616943695E-10
     -1.27818488385808E-34  -7.62579616943695E-10   4.15894183420214E-18   0.00000000000000E+00   0.00000000000000E+00
      0.00000000000000E+00   0.00000000000000E+00   0.00000000000000E+00   0.00000000000000E+00   0.00000000000000E+00
      3.15067126850946E-18   0.00000000000000E+00   0.00000000000000E+00   0.00000000000000E+00   0.00000000000000E+00
      3.28906777331997E-19   2.29638174331630E-34   3.28906777331997E-19  -1.07572910269291E-17   5.18963063111111E-03
      5.18963043520765E-03   0.00000000000000E+00   0.00000000000000E+00   7.62579616614789E-10  -1.01819685945823E-34
      7.62579616614789E-10   3.44767792421751E-18
      7.60621661629630E-03
      0.00000000000000E+00   2.35478839205538E-10   0.00000000000000E+00   0.00000000000000E+00  -9.18739473124568E-10
     -1.24322697434203E-34  -9.18739473124568E-10   4.15868821030871E-18   0.00000000000000E+00   0.00000000000000E+00
      0.00000000000000E+00   0.00000000000000E+00   0.00000000000000E+00   0.00000000000000E+00   0.00000000000000E+00
      3.13608975855997E-18   0.00000000000000E+00   0.00000000000000E+00   0.00000000000000E+00   0.00000000000000E+00
      1.57321361933555E-19   2.19798333090212E-34   1.57321361933556E-19  -1.07566205147176E-17   6.54134629001482E-03
      6.54134605398272E-03   0.00000000000000E+00   0.00000000000000E+00   9.18739472967247E-10  -9.54756356560091E-35
      9.18739472967247E-10   3.46184254584893E-18
      9.32467683381729E-03
      0.00000000000000E+00   2.74834017565991E-10   0.00000000000000E+00   0.00000000000000E+00  -1.07222490944163E-09
     -1.24943773764061E-34  -1.07222490944163E-09   4.15841102832908E-18   0.00000000000000E+00   0.00000000000000E+00
      0.00000000000000E+00   0.00000000000000E+00   0.00000000000000E+00   0.00000000000000E+00   0.00000000000000E+00
      3.12015453265442E-18   0.00000000000000E+00   0.00000000000000E+00   0.00000000000000E+00   0.00000000000000E+00
     -2.70675260773713E-19   2.26999495734626E-34  -2.70675260773712E-19  -1.07559041993980E-17   8.01922207708287E-03
      8.01922180160437E-03   0.00000000000000E+00   0.00000000000000E+00   1.07222490971231E-09  -1.02055721970565E-34
      1.07222490971231E-09   3.47733863841446E-18
      1.12035266716402E-02
      0.00000000000000E+00   3.13054108743524E-10   0.00000000000000E+00   0.00000000000000E+00  -1.22126266083970E-09
     -1.19037699329696E-34  -1.22126266083970E-09   4.15810810742905E-18   0.00000000000000E+00   0.00000000000000E+00
      0.00000000000000E+00   0.00000000000000E+00   0.00000000000000E+00   0.00000000000000E+00   0.00000000000000E+00
      3.10274043433271E-18   0.00000000000000E+00   0.00000000000000E+00   0.00000000000000E+00   0.00000000000000E+00
      1.44645692663351E-19   2.19214695817645E-34   1.44645692663352E-19  -1.07551406808147E-17   9.63503293761060E-03
      9.63503262382363E-03   0.00000000000000E+00   0.00000000000000E+00   1.22126266069505E-09  -1.00176996487950E-34
      1.22126266069505E-09   3.49429213905294E-18
      1.32577358276600E-02
      0.00000000000000E+00   3.49673462290681E-10   0.00000000000000E+00   0.00000000000000E+00  -1.36403836461115E-09
     -1.28209912583446E-34  -1.36403836461115E-09   4.15777706542252E-18   0.00000000000000E+00   0.00000000000000E+00
      0.00000000000000E+00   0.00000000000000E+00   0.00000000000000E+00   0.00000000000000E+00   0.00000000000000E+00
      3.08371079773958E-18   0.00000000000000E+00   0.00000000000000E+00   0.00000000000000E+00   0.00000000000000E+00
     -3.18881330840541E-19   2.18235519610654E-34  -3.18881330840541E-19  -1.07543288774983E-17   1.14016528117876E-02
      1.14016524612965E-02   0.00000000000000E+00   0.00000000000000E+00   1.36403836493003E-09  -9.00256070272078E-35
      1.36403836493003E-09   3.51284101433614E-18
      1.55036711715749E-02
      0.00000000000000E+00   3.84232191461677E-10   0.00000000000000E+00   0.00000000000000E+00  -1.49876191119810E-09
     -1.22486824588994E-34  -1.49876191119810E-09   4.15741530006552E-18   0.00000000000000E+00   0.00000000000000E+00
      0.00000000000000E+00   0.00000000000000E+00   0.00000000000000E+00   0.00000000000000E+00   0.00000000000000E+00
      3.06291639110481E-18   0.00000000000000E+00   0.00000000000000E+00   0.00000000000000E+00   0.00000000000000E+00
      3.31397132689572E-19   2.15414486809551E-34   3.31397132689573E-19  -1.07534681142610E-17   1.33331572075544E-02
      1.33331568224246E-02   0.00000000000000E+00   0.00000000000000E+00   1.49876191086670E-09  -9.29276622205569E-35
      1.49876191086670E-09   3.53313642309070E-18
      1.79592271475886E-02
      0.00000000000000E+00   4.16296450752731E-10   0.00000000000000E+00   0.00000000000000E+00  -1.62374682964352E-09
     -1.33943044216131E-34  -1.62374682964352E-09   4.15701996855226E-18   0.00000000000000E+00   0.00000000000000E+00
      0.00000000000000E+00   0.00000000000000E+00   0.00000000000000E+00   0.00000000000000E+00   0.00000000000000E+00
      3.04019426206293E-18   0.00000000000000E+00   0.00000000000000E+00   0.00000000000000E+00   0.00000000000000E+00
      4.29379439856777E-19   2.17523022443922E-34   4.29379439856777E-19  -1.07525582229498E-17   1.54449353469262E-02
      1.54449349296574E-02   0.00000000000000E+00   0.00000000000000E+00   1.62374682921414E-09  -8.35799782277906E-35
      1.62374682921414E-09   3.55534399233467E-18
      2.06439683480302E-02
      0.00000000000000E+00   4.45482508111417E-10   0.00000000000000E+00   0.00000000000000E+00  -1.73750436923980E-09
     -1.12781058648648E-34  -1.73750436923980E-09   4.15658796500326E-18   0.00000000000000E+00   0.00000000000000E+00
      0.00000000000000E+00   0.00000000000000E+00   0.00000000000000E+00   0.00000000000000E+00   0.00000000000000E+00
      3.01536647340044E-18   0.00000000000000E+00   0.00000000000000E+00   0.00000000000000E+00   0.00000000000000E+00
     -1.14156004240115E-19   1.81353093717543E-34  -1.14156004240115E-19  -1.07515996547570E-17   1.77538127793060E-02
      1.77538123327826E-02   0.00000000000000E+00   0.00000000000000E+00   1.73750436935396E-09  -6.85720350688942E-35
      1.73750436935396E-09   3.57964521635332E-18
      2.35792853938464E-02
      0.00000000000000E+00   4.71484366500694E-10   0.00000000000000E+00   0.00000000000000E+00  -1.83885124797640E-09
     -1.12320511744443E-34  -1.83885124797640E-09   4.15611589570688E-18   0.00000000000000E+00   0.00000000000000E+00
      0.00000000000000E+00   0.00000000000000E+00   0.00000000000000E+00   0.00000000000000E+00   0.00000000000000E+00
      2.98823871688816E-18   0.00000000000000E+00   0.00000000000000E+00   0.00000000000000E+00   0.00000000000000E+00
     -2.87688635025171E-19   1.81698961448653E-34  -2.87688635025171E-19  -1.07505936026682E-17   2.02781854387079E-02
      2.02781849661207E-02   0.00000000000000E+00   0.00000000000000E+00   1.83885124826408E-09  -6.93784497042104E-35
      1.83885124826408E-09   3.60623899007322E-18
      2.67885653639387E-02
      0.00000000000000E+00   4.94101748694060E-10   0.00000000000000E+00   0.00000000000000E+00  -1.92701886751649E-09
     -1.20643570223022E-34  -1.92701886751649E-09   4.15560005194909E-18   0.00000000000000E+00   0.00000000000000E+00
      0.00000000000000E+00   0.00000000000000E+00   0.00000000000000E+00   0.00000000000000E+00   0.00000000000000E+00
      2.95859879578633E-18   0.00000000000000E+00   0.00000000000000E+00   0.00000000000000E+00   0.00000000000000E+00
     -3.94433910618079E-19   1.78652074370089E-34  -3.94433910618079E-19  -1.07495421376058E-17   2.30381662129873E-02
      2.30381657177281E-02   0.00000000000000E+00   0.00000000000000E+00   1.92701886791093E-09  -5.80085041470670E-35
      1.92701886791093E-09   3.63534328987040E-18
      3.02973781312396E-02
      0.00000000000000E+00   5.13268500408671E-10   0.00000000000000E+00   0.00000000000000E+00  -2.00176351380437E-09
     -1.30711790683699E-34  -2.00176351380437E-09   4.15503638015768E-18   0.00000000000000E+00   0.00000000000000E+00
      0.00000000000000E+00   0.00000000000000E+00   0.00000000000000E+00   0.00000000000000E+00   0.00000000000000E+00
      2.92621495926888E-18   0.00000000000000E+00   0.00000000000000E+00   0.00000000000000E+00   0.00000000000000E+00
     -6.40949691065053E-19   1.82405342324134E-34  -6.40949691065053E-19  -1.07484483541836E-17   2.60557451928661E-02
      2.60557446783931E-02   0.00000000000000E+00   0.00000000000000E+00   2.00176351444532E-09  -5.16935516404345E-35
      2.00176351444532E-09   3.66719701475708E-18
      3.41336800901553E-02
      0.00000000000000E+00   5.29077007376866E-10   0.00000000000000E+00   0.00000000000000E+00  -2.06346113649605E-09
     -1.24317038337657E-34  -2.06346113649605E-09   4.15442044907174E-18   0.00000000000000E+00   0.00000000000000E+00
      0.00000000000000E+00   0.00000000000000E+00   0.00000000000000E+00   0.00000000000000E+00   0.00000000000000E+00
      2.89083407188956E-18   0.00000000000000E+00   0.00000000000000E+00   0.00000000000000E+00   0.00000000000000E+00
     -8.10492750613362E-20   1.72241291011637E-34  -8.10492750613360E-20  -1.07473165215516E-17   2.93549648775336E-02
      2.93549643472130E-02   0.00000000000000E+00   0.00000000000000E+00   2.06346113657710E-09  -4.79242526739800E-35
      2.06346113657710E-09   3.70206200059033E-18
      3.83280368985698E-02
      0.00000000000000E+00   5.41794195291928E-10   0.00000000000000E+00   0.00000000000000E+00  -2.11316852523972E-09
     -1.07016149439200E-34  -2.11316852523972E-09   4.15374741371673E-18   0.00000000000000E+00   0.00000000000000E+00
      0.00000000000000E+00   0.00000000000000E+00   0.00000000000000E+00   0.00000000000000E+00   0.00000000000000E+00
      2.85217960057099E-18   0.00000000000000E+00   0.00000000000000E+00   0.00000000000000E+00   0.00000000000000E+00
     -5.07780710346632E-19   1.42942413248703E-34  -5.07780710346632E-19  -1.07461522375384E-17   3.29621117327701E-02
      3.29621111897015E-02   0.00000000000000E+00   0.00000000000000E+00   2.11316852574750E-09  -3.59262638095030E-35
      2.11316852574750E-09   3.74022522325069E-18
      4.29138670091030E-02
      0.00000000000000E+00   5.51861631133580E-10   0.00000000000000E+00   0.00000000000000E+00  -2.15262189125037E-09
     -1.14429103268528E-34  -2.15262189125037E-09   4.15301197606057E-18   0.00000000000000E+00   0.00000000000000E+00
      0.00000000000000E+00   0.00000000000000E+00   0.00000000000000E+00   0.00000000000000E+00   0.00000000000000E+00
      2.80994940192415E-18   0.00000000000000E+00   0.00000000000000E+00   0.00000000000000E+00   0.00000000000000E+00
     -1.36660553707649E-18   1.46430794966612E-34  -1.36660553707649E-18  -1.07449625846763E-17   3.69059256278286E-02
      3.69059250746711E-02   0.00000000000000E+00   0.00000000000000E+00   2.15262189261698E-09  -3.20016916980842E-35
      2.15262189261698E-09   3.78200120669157E-18
      4.79277079299527E-02
      0.00000000000000E+00   5.59871785747504E-10   0.00000000000000E+00   0.00000000000000E+00  -2.18414245715189E-09
     -1.28390478463188E-34  -2.18414245715189E-09   4.15220834213027E-18   0.00000000000000E+00   0.00000000000000E+00
      0.00000000000000E+00   0.00000000000000E+00   0.00000000000000E+00   0.00000000000000E+00   0.00000000000000E+00
      2.76381328709571E-18   0.00000000000000E+00   0.00000000000000E+00   0.00000000000000E+00   0.00000000000000E+00
     -2.01076148288150E-18   1.63347204510412E-34  -2.01076148288150E-18  -1.07437562796468E-17   4.12178288197593E-02
      4.12178282585804E-02   0.00000000000000E+00   0.00000000000000E+00   2.18414245916266E-09  -3.49567260472238E-35
      2.18414245916266E-09   3.82773465042085E-18
      5.34095073367482E-02
      0.00000000000000E+00   5.66515096909012E-10   0.00000000000000E+00   0.00000000000000E+00  -2.21042831009150E-09
     -1.28140651167123E-34  -2.21042831009150E-09   4.15133017567293E-18   0.00000000000000E+00   0.00000000000000E+00
      0.00000000000000E+00   0.00000000000000E+00   0.00000000000000E+00   0.00000000000000E+00   0.00000000000000E+00
      2.71341035252672E-18   0.00000000000000E+00   0.00000000000000E+00   0.00000000000000E+00   0.00000000000000E+00
     -2.46836427576174E-18   1.57119697660238E-34  -2.46836427576174E-18  -1.07425438241747E-17   4.59321763096035E-02
      4.59321757417816E-02   0.00000000000000E+00   0.00000000000000E+00   2.21042831255987E-09  -2.89790464931149E-35
      2.21042831255987E-09   3.87780329597506E-18
      5.94029413548448E-02
      0.00000000000000E+00   5.72494825696369E-10   0.00000000000000E+00   0.00000000000000E+00  -2.23422372019663E-09
     -1.30857703383992E-34  -2.23422372019663E-09   4.15037054856381E-18   0.00000000000000E+00   0.00000000000000E+00
      0.00000000000000E+00   0.00000000000000E+00   0.00000000000000E+00   0.00000000000000E+00   0.00000000000000E+00
      2.65834607171806E-18   0.00000000000000E+00   0.00000000000000E+00   0.00000000000000E+00   0.00000000000000E+00
     -2.26321051564397E-17   1.56424021454095E-34  -2.26321051564397E-17  -1.07413376703036E-17   5.10865295651665E-02
      5.10865289913780E-02   0.00000000000000E+00   0.00000000000000E+00   2.23422374282873E-09  -2.55663180701026E-35
      2.23422374282873E-09   3.93262105002169E-18
      6.59557625479636E-02
      0.00000000000000E+00   5.78418391723197E-10   0.00000000000000E+00   0.00000000000000E+00  -2.25788797639060E-09
     -1.34899487979726E-34  -2.25788797639060E-09   4.14932188783232E-18   0.00000000000000E+00   0.00000000000000E+00
      0.00000000000000E+00   0.00000000000000E+00   0.00000000000000E+00   0.00000000000000E+00   0.00000000000000E+00
      2.59818914161216E-18   0.00000000000000E+00   0.00000000000000E+00   0.00000000000000E+00   0.00000000000000E+00
      2.60769656189324E-19   1.54466836828799E-34   2.60769656189325E-19  -1.07401524146233E-17   5.67219557912487E-02
      5.67219552115642E-02   0.00000000000000E+00   0.00000000000000E+00   2.25788797612983E-09  -1.95673488490730E-35
      2.25788797612983E-09   3.99264138517882E-18
      7.30764949111528E-02
      0.00000000000000E+00   5.84675043651621E-10   0.00000000000000E+00   0.00000000000000E+00  -2.28293098789956E-09
     -1.28388578582996E-34  -2.28293098789956E-09   4.14818290321787E-18   0.00000000000000E+00   0.00000000000000E+00
      0.00000000000000E+00   0.00000000000000E+00   0.00000000000000E+00   0.00000000000000E+00   0.00000000000000E+00
      2.53286864226802E-18   0.00000000000000E+00   0.00000000000000E+00   0.00000000000000E+00   0.00000000000000E+00
      6.82515099568736E-20   1.42778067779394E-34   6.82515099568738E-20  -1.07390115594667E-17   6.28457856235914E-02
      6.28457850376931E-02   0.00000000000000E+00   0.00000000000000E+00   2.28293098783131E-09  -1.43894891963974E-35
      2.28293098783131E-09   4.05796001398082E-18
      8.08143574124850E-02
      0.00000000000000E+00   5.91524532619586E-10   0.00000000000000E+00   0.00000000000000E+00  -2.31036114925596E-09
     -1.35306902712156E-34  -2.31036114925596E-09   4.14694579692391E-18   0.00000000000000E+00   0.00000000000000E+00
      0.00000000000000E+00   0.00000000000000E+00   0.00000000000000E+00   0.00000000000000E+00   0.00000000000000E+00
      2.46194027326792E-18   0.00000000000000E+00   0.00000000000000E+00   0.00000000000000E+00   0.00000000000000E+00
      1.11205892162180E-19   1.47797303277318E-34   1.11205892162181E-19  -1.07379328980814E-17   6.95003473747371E-02
      6.95003467820486E-02   0.00000000000000E+00   0.00000000000000E+00   2.31036114914475E-09  -1.24904005651617E-35
      2.31036114914475E-09   4.12904682788955E-18
      8.92228346639326E-02
      0.00000000000000E+00   5.99091760359134E-10   0.00000000000000E+00   0.00000000000000E+00  -2.34066778035969E-09
     -1.30321296906838E-34  -2.34066778035969E-09   4.14560210140878E-18   0.00000000000000E+00   0.00000000000000E+00
      0.00000000000000E+00   0.00000000000000E+00   0.00000000000000E+00   0.00000000000000E+00   0.00000000000000E+00
      2.38492130708777E-18   0.00000000000000E+00   0.00000000000000E+00   0.00000000000000E+00   0.00000000000000E+00
      3.50156028884959E-19   1.39577366342867E-34   3.50156028884959E-19  -1.07369364965958E-17   7.67316378109821E-02
      7.67316372107952E-02   0.00000000000000E+00   0.00000000000000E+00   2.34066778000953E-09  -9.25606943602885E-36
      2.34066778000953E-09   4.20641308809924E-18
      9.83600466105058E-02
      0.00000000000000E+00   6.07385397606002E-10   0.00000000000000E+00   0.00000000000000E+00  -2.37389040200781E-09
     -1.19885301380766E-34  -2.37389040200781E-09   4.14414262288636E-18   0.00000000000000E+00   0.00000000000000E+00
      0.00000000000000E+00   0.00000000000000E+00   0.00000000000000E+00   0.00000000000000E+00   0.00000000000000E+00
      2.30128735653336E-18   0.00000000000000E+00   0.00000000000000E+00   0.00000000000000E+00   0.00000000000000E+00
      2.42717123272911E-19   1.26960560935523E-34   2.42717123272911E-19  -1.07360449214968E-17   8.45896400850350E-02
      8.45896394766299E-02   0.00000000000000E+00   0.00000000000000E+00   2.37389040176509E-09  -7.07525955475706E-36
      2.37389040176509E-09   4.29061494207713E-18
      1.08289150259115E-01
      0.00000000000000E+00   6.16401271053843E-10   0.00000000000000E+00   0.00000000000000E+00  -2.41002589475100E-09
     -1.14908534802735E-34  -2.41002589475100E-09   4.14255737126129E-18   0.00000000000000E+00   0.00000000000000E+00
      0.00000000000000E+00   0.00000000000000E+00   0.00000000000000E+00   0.00000000000000E+00   0.00000000000000E+00
      2.21046858003073E-18   0.00000000000000E+00   0.00000000000000E+00   0.00000000000000E+00   0.00000000000000E+00
     -5.01316510565005E-19   1.21300989066979E-34  -5.01316510565005E-19  -1.07352831495339E-17   9.31286692228391E-02
      9.31286686055074E-02   0.00000000000000E+00   0.00000000000000E+00   2.41002589525232E-09  -6.39245426424476E-36
      2.41002589525232E-09   4.38225719824184E-18
      1.18289150259115E-01
      0.00000000000000E+00   6.25474934395428E-10   0.00000000000000E+00   0.00000000000000E+00  -2.44641891443630E-09
     -1.31243532688769E-34  -2.44641891443630E-09   4.14096147575327E-18   0.00000000000000E+00   0.00000000000000E+00
      0.00000000000000E+00   0.00000000000000E+00   0.00000000000000E+00   0.00000000000000E+00   0.00000000000000E+00
      2.11906099618344E-18   0.00000000000000E+00   0.00000000000000E+00   0.00000000000000E+00   0.00000000000000E+00
      5.73232546703111E-20   1.35030215486141E-34   5.73232546703112E-20  -1.07347152921854E-17   1.01728669222839E-01
      1.01728668596535E-01   0.00000000000000E+00   0.00000000000000E+00   2.44641891437897E-09  -3.78668279737206E-36
      2.44641891437897E-09   4.47469282024868E-18
      1.28289150259115E-01
      0.00000000000000E+00   6.34559281946411E-10   0.00000000000000E+00   0.00000000000000E+00  -2.48288030393294E-09
     -1.20169516434941E-34  -2.48288030393294E-09   4.13936619045248E-18   0.00000000000000E+00   0.00000000000000E+00
      0.00000000000000E+00   0.00000000000000E+00   0.00000000000000E+00   0.00000000000000E+00   0.00000000000000E+00
      2.02770702429305E-18   0.00000000000000E+00   0.00000000000000E+00   0.00000000000000E+00   0.00000000000000E+00
      2.70229254214768E-19   1.23321378978448E-34   2.70229254214768E-19  -1.07343304069349E-17   1.10328669222839E-01
      1.10328668587553E-01   0.00000000000000E+00   0.00000000000000E+00   2.48288030366271E-09  -3.15186254350693E-36
      2.48288030366271E-09   4.56725719218934E-18
      1.38289150259115E-01
      0.00000000000000E+00   6.43671655770815E-10   0.00000000000000E+00   0.00000000000000E+00  -2.51947788204718E-09
     -1.21323567735048E-34  -2.51947788204718E-09   4.13777145972015E-18   0.00000000000000E+00   0.00000000000000E+00
      0.00000000000000E+00   0.00000000000000E+00   0.00000000000000E+00   0.00000000000000E+00   0.00000000000000E+00
      1.93640138198514E-18   0.00000000000000E+00   0.00000000000000E+00   0.00000000000000E+00   0.00000000000000E+00
     -2.93360116379563E-19   1.23733271392011E-34  -2.93360116379563E-19  -1.07341133290355E-17   1.18928669222839E-01
      1.18928668578536E-01   0.00000000000000E+00   0.00000000000000E+00   2.51947788234054E-09  -2.40970365696274E-36
      2.51947788234054E-09   4.65994048733019E-18
      1.48289150259115E-01
      0.00000000000000E+00   6.52825325359255E-10   0.00000000000000E+00   0.00000000000000E+00  -2.55626341816735E-09
     -1.21016584911692E-34  -2.55626341816735E-09   4.13617723452728E-18   0.00000000000000E+00   0.00000000000000E+00
      0.00000000000000E+00   0.00000000000000E+00   0.00000000000000E+00   0.00000000000000E+00   0.00000000000000E+00
      1.84513951561920E-18   0.00000000000000E+00   0.00000000000000E+00   0.00000000000000E+00   0.00000000000000E+00
     -2.84937001596782E-20   1.22805431155096E-34  -2.84937001596781E-20  -1.07340504779705E-17   1.27528669222839E-01
      1.27528668569471E-01   0.00000000000000E+00   0.00000000000000E+00   2.55626341819584E-09  -1.78884624340394E-36
      2.55626341819584E-09   4.75273372782405E-18
      1.58289150259115E-01
      0.00000000000000E+00   6.62028823976637E-10   0.00000000000000E+00   0.00000000000000E+00  -2.59326951684060E-09
     -1.28459115690044E-34  -2.59326951684060E-09   4.13458347011756E-18   0.00000000000000E+00   0.00000000000000E+00
      0.00000000000000E+00   0.00000000000000E+00   0.00000000000000E+00   0.00000000000000E+00   0.00000000000000E+00
      1.75391741195851E-18   0.00000000000000E+00   0.00000000000000E+00   0.00000000000000E+00   0.00000000000000E+00
      3.50287943456519E-19   1.29656294037208E-34   3.50287943456519E-19  -1.07341295739159E-17   1.36128669222839E-01
      1.36128668560352E-01   0.00000000000000E+00   0.00000000000000E+00   2.59326951649032E-09  -1.19717834716443E-36
      2.59326951649032E-09   4.84562869183985E-18
      1.68289150259115E-01
      0.00000000000000E+00   6.71285847336677E-10   0.00000000000000E+00   0.00000000000000E+00  -2.63050985492550E-09
     -1.27515416211663E-34  -2.63050985492550E-09   4.13299012575911E-18   0.00000000000000E+00   0.00000000000000E+00
      0.00000000000000E+00   0.00000000000000E+00   0.00000000000000E+00   0.00000000000000E+00   0.00000000000000E+00
      1.66273152247932E-18   0.00000000000000E+00   0.00000000000000E+00   0.00000000000000E+00   0.00000000000000E+00
      2.74447888839309E-19   1.28624952814646E-34   2.74447888839309E-19  -1.07343394864086E-17   1.44728669222839E-01
      1.44728668551179E-01   0.00000000000000E+00   0.00000000000000E+00   2.63050985465105E-09  -1.10953660298320E-36
      2.63050985465105E-09   4.93861783817016E-18
      1.78289150259115E-01
      0.00000000000000E+00   6.80596757485403E-10   0.00000000000000E+00   0.00000000000000E+00  -2.66798535819350E-09
     -1.15077474299202E-34  -2.66798535819350E-09   4.13139716486477E-18   0.00000000000000E+00   0.00000000000000E+00
      0.00000000000000E+00   0.00000000000000E+00   0.00000000000000E+00   0.00000000000000E+00   0.00000000000000E+00
      1.57157871801235E-18   0.00000000000000E+00   0.00000000000000E+00   0.00000000000000E+00   0.00000000000000E+00
     -3.24654039333465E-19   1.15815725400261E-34  -3.24654039333465E-19  -1.07346701259242E-17   1.53328669222839E-01
      1.53328668541958E-01   0.00000000000000E+00   0.00000000000000E+00   2.66798535851815E-09  -7.38251101058855E-37
      2.66798535851815E-09   5.03169424304706E-18
      1.88289150259115E-01
      0.00000000000000E+00   6.89960294076002E-10   0.00000000000000E+00   0.00000000000000E+00  -2.70569100469012E-09