DF-ISE text

Info {
  version   = 1.0
  type      = xyplot
  datasets  = [
    "time"
    "source OuterVoltage" "source InnerVoltage" "source QuasiFermiPotential" "source DisplacementCurrent" "source eCurrent"
    "source hCurrent" "source TotalCurrent" "source Charge" "gate OuterVoltage" "gate InnerVoltage"
    "gate QuasiFermiPotential" "gate DisplacementCurrent" "gate eCurrent" "gate hCurrent" "gate TotalCurrent"
    "gate Charge" "substrate OuterVoltage" "substrate InnerVoltage" "substrate QuasiFermiPotential" "substrate DisplacementCurrent"
    "substrate eCurrent" "substrate hCurrent" "substrate TotalCurrent" "substrate Charge" "drain OuterVoltage"
    "drain InnerVoltage" "drain QuasiFermiPotential" "drain DisplacementCurrent" "drain eCurrent" "drain hCurrent"
    "drain TotalCurrent" "drain Charge" ]
  functions = [
    Time
    OuterVoltage InnerVoltage QuasiFermiPotential DisplacementCurrent eCurrent
    hCurrent TotalCurrent Charge OuterVoltage InnerVoltage
    QuasiFermiPotential DisplacementCurrent eCurrent hCurrent TotalCurrent
    Charge OuterVoltage InnerVoltage QuasiFermiPotential DisplacementCurrent
    eCurrent hCurrent TotalCurrent Charge OuterVoltage
    InnerVoltage QuasiFermiPotential DisplacementCurrent eCurrent hCurrent
    TotalCurrent Charge ]
}

Data {
      0.00000000000000E+00
      0.00000000000000E+00   0.00000000000000E+00   0.00000000000000E+00   0.00000000000000E+00   7.19547571796617E-23
     -1.33450843028625E-34   7.19547571795282E-23   5.34706454804856E-18   0.00000000000000E+00   0.00000000000000E+00
      0.00000000000000E+00   0.00000000000000E+00   0.00000000000000E+00   0.00000000000000E+00   0.00000000000000E+00
      4.10716304968338E-18   0.00000000000000E+00   0.00000000000000E+00   0.00000000000000E+00   0.00000000000000E+00
     -4.76796278844765E-23   3.32443508519484E-34  -4.76796278841440E-23  -1.38850881562155E-17   0.00000000000000E+00
      0.00000000000000E+00   0.00000000000000E+00   0.00000000000000E+00  -2.42751292951856E-23  -1.98992665490859E-34
     -2.42751292953846E-23   4.43086055848359E-18
      0.00000000000000E+00
      0.00000000000000E+00   0.00000000000000E+00   0.00000000000000E+00   0.00000000000000E+00  -5.19260713435165E-21
     -1.80953885012484E-34  -5.19260713435183E-21   5.34529211384008E-18   0.00000000000000E+00   0.00000000000000E+00
      0.00000000000000E+00   0.00000000000000E+00   0.00000000000000E+00   0.00000000000000E+00   0.00000000000000E+00
      4.10094805027706E-18   0.00000000000000E+00   0.00000000000000E+00   0.00000000000000E+00   0.00000000000000E+00
      2.78096545796786E-20   3.68407858072817E-34   2.78096545796790E-20  -1.38758349081715E-17   0.00000000000000E+00
      0.00000000000000E+00   0.00000000000000E+00   0.00000000000000E+00  -2.26170474453270E-20  -1.87453973060332E-34
     -2.26170474453271E-20   4.42959474405442E-18
      1.00000000000000E-03
      0.00000000000000E+00   2.44275229496261E-11   0.00000000000000E+00   0.00000000000000E+00  -1.19664962871131E-10
     -1.55256385447027E-34  -1.19664962871131E-10   5.34499389695350E-18   0.00000000000000E+00   0.00000000000000E+00
      0.00000000000000E+00   0.00000000000000E+00   0.00000000000000E+00   0.00000000000000E+00   0.00000000000000E+00
      4.08999329876656E-18   0.00000000000000E+00   0.00000000000000E+00   0.00000000000000E+00   0.00000000000000E+00
     -3.05538752666212E-18   3.47157436129184E-34  -3.05538752666212E-18  -1.38755051795862E-17   8.60000000000000E-04
      8.59999975291244E-04   0.00000000000000E+00   0.00000000000000E+00   1.19664965926518E-10  -1.91901050682157E-34
      1.19664965926518E-10   4.44051798386617E-18
      2.08666666666667E-03
      0.00000000000000E+00   4.94462054007027E-11   0.00000000000000E+00   0.00000000000000E+00  -2.42216381446953E-10
     -1.26833618796374E-34  -2.42216381446953E-10   5.34466989468334E-18   0.00000000000000E+00   0.00000000000000E+00
      0.00000000000000E+00   0.00000000000000E+00   0.00000000000000E+00   0.00000000000000E+00   0.00000000000000E+00
      4.07809194599497E-18   0.00000000000000E+00   0.00000000000000E+00   0.00000000000000E+00   0.00000000000000E+00
      2.07526358339299E-20   3.14539614396456E-34   2.07526358339302E-20  -1.38751531812308E-17   1.79453333333333E-03
      1.79453328331823E-03   0.00000000000000E+00   0.00000000000000E+00   2.42216381426201E-10  -1.87705995600082E-34
      2.42216381426201E-10   4.45239134055250E-18
      3.27475555555556E-03
      0.00000000000000E+00   7.50101751590658E-11   0.00000000000000E+00   0.00000000000000E+00  -3.67426610320017E-10
     -1.68360967150997E-34  -3.67426610320017E-10   5.34431572298360E-18   0.00000000000000E+00   0.00000000000000E+00
      0.00000000000000E+00   0.00000000000000E+00   0.00000000000000E+00   0.00000000000000E+00   0.00000000000000E+00
      4.06508309752856E-18   0.00000000000000E+00   0.00000000000000E+00   0.00000000000000E+00   0.00000000000000E+00
      5.05939916221967E-20   3.45555693527780E-34   5.05939916221971E-20  -1.38747757449840E-17   2.81628977777778E-03
      2.81628970190513E-03   0.00000000000000E+00   0.00000000000000E+00   3.67426610269422E-10  -1.77194726376783E-34
      3.67426610269422E-10   4.46537692447183E-18
      4.57373274074074E-03
      0.00000000000000E+00   1.00909758343399E-10   0.00000000000000E+00   0.00000000000000E+00  -4.94265974030701E-10
     -1.73425781632026E-34  -4.94265974030701E-10   5.34392857854565E-18   0.00000000000000E+00   0.00000000000000E+00
      0.00000000000000E+00   0.00000000000000E+00   0.00000000000000E+00   0.00000000000000E+00   0.00000000000000E+00
      4.05086396353757E-18   0.00000000000000E+00   0.00000000000000E+00   0.00000000000000E+00   0.00000000000000E+00
      4.04220599557674E-20   3.48076036042832E-34   4.04220599557677E-20  -1.38743718146546E-17   3.93341015703704E-03
      3.93341005496777E-03   0.00000000000000E+00   0.00000000000000E+00   4.94265973990278E-10  -1.74650254410806E-34
      4.94265973990278E-10   4.47957927257133E-18
      5.99394779654321E-03
      0.00000000000000E+00   1.26912343699681E-10   0.00000000000000E+00   0.00000000000000E+00  -6.21593374537679E-10
     -1.03937443729783E-34  -6.21593374537679E-10   5.34350539834772E-18   0.00000000000000E+00   0.00000000000000E+00
      0.00000000000000E+00   0.00000000000000E+00   0.00000000000000E+00   0.00000000000000E+00   0.00000000000000E+00
      4.03532225431071E-18   0.00000000000000E+00   0.00000000000000E+00   0.00000000000000E+00   0.00000000000000E+00
     -4.73977067594719E-21   2.84059844509575E-34  -4.73977067594690E-21  -1.38739404561357E-17   5.15479510502716E-03
      5.15479497665744E-03   0.00000000000000E+00   0.00000000000000E+00   6.21593374542419E-10  -1.80122400779792E-34
      6.21593374542419E-10   4.49511280347723E-18
      7.54671625755391E-03
      0.00000000000000E+00   1.52761897014663E-10   0.00000000000000E+00   0.00000000000000E+00  -7.48153801259184E-10
     -1.77052340458589E-34  -7.48153801259184E-10   5.34304283567380E-18   0.00000000000000E+00   0.00000000000000E+00
      0.00000000000000E+00   0.00000000000000E+00   0.00000000000000E+00   0.00000000000000E+00   0.00000000000000E+00
      4.01833530651265E-18   0.00000000000000E+00   0.00000000000000E+00   0.00000000000000E+00   0.00000000000000E+00
      2.98837164365779E-20   3.63371204684621E-34   2.98837164365783E-20  -1.38734809013031E-17   6.49017598149636E-03
      6.49017582698137E-03   0.00000000000000E+00   0.00000000000000E+00   7.48153801229300E-10  -1.86318864226032E-34
      7.48153801229300E-10   4.51210275911659E-18
      9.24440977492561E-03
      0.00000000000000E+00   1.78181778538218E-10   0.00000000000000E+00   0.00000000000000E+00  -8.72592474888165E-10
     -1.59714755048447E-34  -8.72592474888165E-10   5.34253723390159E-18   0.00000000000000E+00   0.00000000000000E+00
      0.00000000000000E+00   0.00000000000000E+00   0.00000000000000E+00   0.00000000000000E+00   0.00000000000000E+00
      3.99976912941090E-18   0.00000000000000E+00   0.00000000000000E+00   0.00000000000000E+00   0.00000000000000E+00
      1.54456692136580E-20   3.09313022360130E-34   1.54456692136583E-20  -1.38729926000181E-17   7.95019240643603E-03
      7.95019222621072E-03   0.00000000000000E+00   0.00000000000000E+00   8.72592474872719E-10  -1.49598267311682E-34
      8.72592474872719E-10   4.53068623670556E-18
      1.11005546872520E-02
      0.00000000000000E+00   2.02880435656223E-10   0.00000000000000E+00   0.00000000000000E+00  -9.93482986812680E-10
     -1.77771449770448E-34  -9.93482986812680E-10   5.34198459784147E-18   0.00000000000000E+00   0.00000000000000E+00
      0.00000000000000E+00   0.00000000000000E+00   0.00000000000000E+00   0.00000000000000E+00   0.00000000000000E+00
      3.97947736296309E-18   0.00000000000000E+00   0.00000000000000E+00   0.00000000000000E+00   0.00000000000000E+00
      4.85809006591272E-20   3.14948359679124E-34   4.85809006591275E-20  -1.38724752804474E-17   9.54647703103672E-03
      9.54647682583105E-03   0.00000000000000E+00   0.00000000000000E+00   9.93482986764100E-10  -1.37176909908677E-34
      9.93482986764100E-10   4.55101331964287E-18
      1.31299397913955E-02
      0.00000000000000E+00   2.26559575371341E-10   0.00000000000000E+00   0.00000000000000E+00  -1.10936754996466E-09
     -1.67556534880222E-34  -1.10936754996466E-09   5.34138056240385E-18   0.00000000000000E+00   0.00000000000000E+00
      0.00000000000000E+00   0.00000000000000E+00   0.00000000000000E+00   0.00000000000000E+00   0.00000000000000E+00
      3.95730014008793E-18   0.00000000000000E+00   0.00000000000000E+00   0.00000000000000E+00   0.00000000000000E+00
     -1.62735641753437E-20   3.09738052520968E-34  -1.62735641753434E-20  -1.38719290192561E-17   1.12917482206002E-02
      1.12917479914457E-02   0.00000000000000E+00   0.00000000000000E+00   1.10936754998093E-09  -1.42181517640746E-34
      1.10936754998093E-09   4.57324831676435E-18
      1.53487341719258E-02
      0.00000000000000E+00   2.48925030896097E-10   0.00000000000000E+00   0.00000000000000E+00  -1.21881060583756E-09
     -1.66138747816349E-34  -1.21881060583756E-09   5.34072035830185E-18   0.00000000000000E+00   0.00000000000000E+00
      0.00000000000000E+00   0.00000000000000E+00   0.00000000000000E+00   0.00000000000000E+00   0.00000000000000E+00
      3.93306284234011E-18   0.00000000000000E+00   0.00000000000000E+00   0.00000000000000E+00   0.00000000000000E+00
      1.54952158734501E-20   3.13066090964972E-34   1.54952158734505E-20  -1.38713543200182E-17   1.31999113878562E-02
      1.31999111360821E-02   0.00000000000000E+00   0.00000000000000E+00   1.21881060582206E-09  -1.46927343148622E-34
      1.21881060582206E-09   4.59757111937618E-18
      1.77746160279722E-02
      0.00000000000000E+00   2.69699889497394E-10   0.00000000000000E+00   0.00000000000000E+00  -1.32046335017941E-09
     -1.78777975786801E-34  -1.32046335017941E-09   5.33999877455230E-18   0.00000000000000E+00   0.00000000000000E+00
      0.00000000000000E+00   0.00000000000000E+00   0.00000000000000E+00   0.00000000000000E+00   0.00000000000000E+00
      3.90657474115888E-18   0.00000000000000E+00   0.00000000000000E+00   0.00000000000000E+00   0.00000000000000E+00
     -2.26085493651500E-20   2.97559919474509E-34  -2.26085493651497E-20  -1.38707522038414E-17   1.52861697840561E-02
      1.52861695112715E-02   0.00000000000000E+00   0.00000000000000E+00   1.32046335020202E-09  -1.18781943687708E-34
      1.32046335020202E-09   4.62417868813017E-18
      2.04269135239163E-02
      0.00000000000000E+00   2.88640110353916E-10   0.00000000000000E+00   0.00000000000000E+00  -1.41314046507277E-09
     -1.84599738105253E-34  -1.41314046507277E-09   5.33921011741016E-18   0.00000000000000E+00   0.00000000000000E+00
      0.00000000000000E+00   0.00000000000000E+00   0.00000000000000E+00   0.00000000000000E+00   0.00000000000000E+00
      3.87762751112190E-18   0.00000000000000E+00   0.00000000000000E+00   0.00000000000000E+00   0.00000000000000E+00
     -3.21880823927121E-20   2.81387352334973E-34  -3.21880823927118E-20  -1.38701243090187E-17   1.75671456305680E-02
      1.75671453386290E-02   0.00000000000000E+00   0.00000000000000E+00   1.41314046510496E-09  -9.67876142297207E-35
      1.41314046510496E-09   4.65328668048665E-18
      2.33267587861485E-02
      0.00000000000000E+00   3.05552144288625E-10   0.00000000000000E+00   0.00000000000000E+00  -1.49590663628069E-09
     -1.81247171312858E-34  -1.49590663628069E-09   5.33834816537586E-18   0.00000000000000E+00   0.00000000000000E+00
      0.00000000000000E+00   0.00000000000000E+00   0.00000000000000E+00   0.00000000000000E+00   0.00000000000000E+00
      3.84599360257072E-18   0.00000000000000E+00   0.00000000000000E+00   0.00000000000000E+00   0.00000000000000E+00
      1.64305916393255E-20   2.80686276606147E-34   1.64305916393258E-20  -1.38694729997911E-17   2.00610125560877E-02
      2.00610122470465E-02   0.00000000000000E+00   0.00000000000000E+00   1.49590663626426E-09  -9.94391052932891E-35
      1.49590663626426E-09   4.68513123184454E-18
      2.64972562728556E-02
      0.00000000000000E+00   3.20310997417497E-10   0.00000000000000E+00   0.00000000000000E+00  -1.56816473889047E-09
     -1.49680916135590E-34  -1.56816473889047E-09   5.33740611995388E-18   0.00000000000000E+00   0.00000000000000E+00
      0.00000000000000E+00   0.00000000000000E+00   0.00000000000000E+00   0.00000000000000E+00   0.00000000000000E+00
      3.81142446269309E-18   0.00000000000000E+00   0.00000000000000E+00   0.00000000000000E+00   0.00000000000000E+00
     -1.04857166857189E-20   2.46326562631839E-34  -1.04857166857186E-20  -1.38688014873927E-17   2.27876403946559E-02
      2.27876400706914E-02   0.00000000000000E+00   0.00000000000000E+00   1.56816473890095E-09  -9.66456464962498E-35
      1.56816473890095E-09   4.71997090474566E-18
      2.99636668583222E-02
      0.00000000000000E+00   3.32878933459338E-10   0.00000000000000E+00   0.00000000000000E+00  -1.62974724080750E-09
     -1.34458491517276E-34  -1.62974724080750E-09   5.33637655163442E-18   0.00000000000000E+00   0.00000000000000E+00
      0.00000000000000E+00   0.00000000000000E+00   0.00000000000000E+00   0.00000000000000E+00   0.00000000000000E+00
      3.77364858289461E-18   0.00000000000000E+00   0.00000000000000E+00   0.00000000000000E+00   0.00000000000000E+00
     -2.51237396694904E-20   2.21875561487733E-34  -2.51237396694902E-20  -1.38681139534560E-17   2.57687534981571E-02
      2.57687531614869E-02   0.00000000000000E+00   0.00000000000000E+00   1.62974724083263E-09  -8.74170699704571E-35
      1.62974724083263E-09   4.75808881892694E-18
      3.37536090984323E-02
      0.00000000000000E+00   3.43320751427491E-10   0.00000000000000E+00   0.00000000000000E+00  -1.68099035281846E-09
     -1.80081576830470E-34  -1.68099035281846E-09   5.33525134074290E-18   0.00000000000000E+00   0.00000000000000E+00
      0.00000000000000E+00   0.00000000000000E+00   0.00000000000000E+00   0.00000000000000E+00   0.00000000000000E+00
      3.73236936125994E-18   0.00000000000000E+00   0.00000000000000E+00   0.00000000000000E+00   0.00000000000000E+00
     -5.19759133178662E-20   2.56212754544093E-34  -5.19759133178659E-20  -1.38674156809076E-17   2.90281038246517E-02
      2.90281034774279E-02   0.00000000000000E+00   0.00000000000000E+00   1.68099035287044E-09  -7.61311777136229E-35
      1.68099035287044E-09   4.79979497890477E-18
      3.78972792809526E-02
      0.00000000000000E+00   3.51813773745006E-10   0.00000000000000E+00   0.00000000000000E+00  -1.72278171481240E-09
     -1.57646278544488E-34  -1.72278171481240E-09   5.33402161267816E-18   0.00000000000000E+00   0.00000000000000E+00
      0.00000000000000E+00   0.00000000000000E+00   0.00000000000000E+00   0.00000000000000E+00   0.00000000000000E+00
      3.68726275885585E-18   0.00000000000000E+00   0.00000000000000E+00   0.00000000000000E+00   0.00000000000000E+00
     -7.26502931055678E-20   2.32112793562379E-34  -7.26502931055676E-20  -1.38667131883702E-17   3.25916601816192E-02
      3.25916598258160E-02   0.00000000000000E+00   0.00000000000000E+00   1.72278171488505E-09  -7.44665150178913E-35
      1.72278171488505E-09   4.84542881683618E-18
      4.24276920138415E-02
      0.00000000000000E+00   3.58647656602264E-10   0.00000000000000E+00   0.00000000000000E+00  -1.75655785838406E-09
     -1.40624982034135E-34  -1.75655785838406E-09   5.33267766704155E-18   0.00000000000000E+00   0.00000000000000E+00
      0.00000000000000E+00   0.00000000000000E+00   0.00000000000000E+00   0.00000000000000E+00   0.00000000000000E+00
      3.63797472623706E-18   0.00000000000000E+00   0.00000000000000E+00   0.00000000000000E+00   0.00000000000000E+00
     -3.59997331355536E-19   2.05141711572650E-34  -3.59997331355536E-19  -1.38660143584257E-17   3.64878151319037E-02
      3.64878147692037E-02   0.00000000000000E+00   0.00000000000000E+00   1.75655785874406E-09  -6.45167295385142E-35
      1.75655785874406E-09   4.89536196514703E-18
      4.73809432684667E-02
      0.00000000000000E+00   3.64209204110015E-10   0.00000000000000E+00   0.00000000000000E+00  -1.78422728124818E-09
     -1.95881646287271E-34  -1.78422728124818E-09   5.33120890031349E-18   0.00000000000000E+00   0.00000000000000E+00
      0.00000000000000E+00   0.00000000000000E+00   0.00000000000000E+00   0.00000000000000E+00   0.00000000000000E+00
      3.58411838246464E-18   0.00000000000000E+00   0.00000000000000E+00   0.00000000000000E+00   0.00000000000000E+00
     -3.85623717327630E-19   2.43551225306536E-34  -3.85623717327630E-19  -1.38653285630604E-17   4.07476112108814E-02
      4.07476108425773E-02   0.00000000000000E+00   0.00000000000000E+00   1.78422728163381E-09  -4.76695790192644E-35
      1.78422728163381E-09   4.95000128028234E-18
      5.27964979735236E-02
      0.00000000000000E+00   3.68948929161305E-10   0.00000000000000E+00   0.00000000000000E+00  -1.80800540846870E-09
     -1.81960775156117E-34  -1.80800540846870E-09   5.32960372175546E-18   0.00000000000000E+00   0.00000000000000E+00
      0.00000000000000E+00   0.00000000000000E+00   0.00000000000000E+00   0.00000000000000E+00   0.00000000000000E+00
      3.52527092510882E-18   0.00000000000000E+00   0.00000000000000E+00   0.00000000000000E+00   0.00000000000000E+00
      3.96418544410862E-20   2.24393281473062E-34   3.96418544410864E-20  -1.38646667816413E-17   4.54049882572303E-02
      4.54049878841621E-02   0.00000000000000E+00   0.00000000000000E+00   1.80800540842906E-09  -4.24325063169455E-35
      1.80800540842906E-09   5.00979213477705E-18
      5.87175044510525E-02
      0.00000000000000E+00   3.73326450884789E-10   0.00000000000000E+00   0.00000000000000E+00  -1.83014661285826E-09
     -1.57378403961106E-34  -1.83014661285826E-09   5.32784946249865E-18   0.00000000000000E+00   0.00000000000000E+00
      0.00000000000000E+00   0.00000000000000E+00   0.00000000000000E+00   0.00000000000000E+00   0.00000000000000E+00
      3.46097026025607E-18   0.00000000000000E+00   0.00000000000000E+00   0.00000000000000E+00   0.00000000000000E+00
      2.18110248221690E-20   1.93263034411148E-34   2.18110248221692E-20  -1.38640417239148E-17   5.04970538279052E-02
      5.04970534504495E-02   0.00000000000000E+00   0.00000000000000E+00   1.83014661283645E-09  -3.58846304500417E-35
      1.83014661283645E-09   5.07522200116003E-18
      6.51516648233006E-02
      0.00000000000000E+00   3.77712122127871E-10   0.00000000000000E+00   0.00000000000000E+00  -1.85245231766630E-09
     -1.46660482090289E-34  -1.85245231766630E-09   5.32594396501394E-18   0.00000000000000E+00   0.00000000000000E+00
      0.00000000000000E+00   0.00000000000000E+00   0.00000000000000E+00   0.00000000000000E+00   0.00000000000000E+00
      3.39113961011225E-18   0.00000000000000E+00   0.00000000000000E+00   0.00000000000000E+00   0.00000000000000E+00
     -8.93244383662716E-21   1.81120785607872E-34  -8.93244383662698E-21  -1.38634711249054E-17   5.60304317480385E-02
      5.60304313661991E-02   0.00000000000000E+00   0.00000000000000E+00   1.85245231767523E-09  -3.44603035175825E-35
      1.85245231767523E-09   5.14638754977924E-18
      7.21434524278101E-02
      0.00000000000000E+00   3.82383927995996E-10   0.00000000000000E+00   0.00000000000000E+00  -1.87627210770734E-09
     -1.23845788191808E-34  -1.87627210770734E-09   5.32387418785584E-18   0.00000000000000E+00   0.00000000000000E+00
      0.00000000000000E+00   0.00000000000000E+00   0.00000000000000E+00   0.00000000000000E+00   0.00000000000000E+00
      3.31530321130289E-18   0.00000000000000E+00   0.00000000000000E+00   0.00000000000000E+00   0.00000000000000E+00
     -1.42801977541918E-20   1.47674198479381E-34  -1.42801977541917E-20  -1.38629699519325E-17   6.20433690879167E-02
      6.20433687014173E-02   0.00000000000000E+00   0.00000000000000E+00   1.87627210772162E-09  -2.38284102875732E-35
      1.87627210772162E-09   5.22379255277376E-18
      7.97411949580438E-02
      0.00000000000000E+00   3.87514494924816E-10   0.00000000000000E+00   0.00000000000000E+00  -1.90245698819803E-09
     -1.22093663061245E-34  -1.90245698819803E-09   5.32162596664816E-18   0.00000000000000E+00   0.00000000000000E+00
      0.00000000000000E+00   0.00000000000000E+00   0.00000000000000E+00   0.00000000000000E+00   0.00000000000000E+00
      3.23294419942836E-18   0.00000000000000E+00   0.00000000000000E+00   0.00000000000000E+00   0.00000000000000E+00
     -3.46951370379099E-20   1.43429878513455E-34  -3.46951370379098E-20  -1.38625548213708E-17   6.85774276639177E-02
      6.85774272723096E-02   0.00000000000000E+00   0.00000000000000E+00   1.90245698823272E-09  -2.13362154522094E-35
      1.90245698823272E-09   5.30798465529420E-18
      8.79974085075645E-02
      0.00000000000000E+00   3.93197996936122E-10   0.00000000000000E+00   0.00000000000000E+00  -1.93147694081092E-09
     -1.23459530260571E-34  -1.93147694081092E-09   5.31918392091889E-18   0.00000000000000E+00   0.00000000000000E+00
      0.00000000000000E+00   0.00000000000000E+00   0.00000000000000E+00   0.00000000000000E+00   0.00000000000000E+00
      3.14350112554196E-18   0.00000000000000E+00   0.00000000000000E+00   0.00000000000000E+00   0.00000000000000E+00
     -1.88447914496292E-21   1.39165459864034E-34  -1.88447914496278E-21  -1.38622441171441E-17   7.56777713165054E-02
      7.56777709192449E-02   0.00000000000000E+00   0.00000000000000E+00   1.93147694081281E-09  -1.57059296034632E-35
      1.93147694081281E-09   5.39955907068330E-18
      9.69691605647102E-02
      0.00000000000000E+00   3.99457760041925E-10   0.00000000000000E+00   0.00000000000000E+00  -1.96344659497996E-09
     -1.62262625657243E-34  -1.96344659497996E-09   5.31653135220758E-18   0.00000000000000E+00   0.00000000000000E+00
      0.00000000000000E+00   0.00000000000000E+00   0.00000000000000E+00   0.00000000000000E+00   0.00000000000000E+00
      3.04636417405522E-18   0.00000000000000E+00   0.00000000000000E+00   0.00000000000000E+00   0.00000000000000E+00
     -4.06954412762582E-20   1.76321689618595E-34  -4.06954412762580E-20  -1.38620580843908E-17   8.33934780856508E-02
      8.33934776821669E-02   0.00000000000000E+00   0.00000000000000E+00   1.96344659502066E-09  -1.40590639613521E-35
      1.96344659502066E-09   5.49916255812800E-18
      1.06718464466809E-01
      0.00000000000000E+00   4.06298977721946E-10   0.00000000000000E+00   0.00000000000000E+00  -1.99840902108080E-09
     -1.83505631070079E-34  -1.99840902108080E-09   5.31365012407997E-18   0.00000000000000E+00   0.00000000000000E+00
      0.00000000000000E+00   0.00000000000000E+00   0.00000000000000E+00   0.00000000000000E+00   0.00000000000000E+00
      2.94087091848096E-18   0.00000000000000E+00   0.00000000000000E+00   0.00000000000000E+00   0.00000000000000E+00
     -2.38566352038583E-20   1.92455194272580E-34  -2.38566352038582E-20  -1.38620187351249E-17   9.17778794414554E-02
      9.17778790311735E-02   0.00000000000000E+00   0.00000000000000E+00   1.99840902110466E-09  -8.94956320250151E-36
      1.99840902110466E-09   5.60749769256394E-18
      1.16718464466809E-01
      0.00000000000000E+00   4.13342010605353E-10   0.00000000000000E+00   0.00000000000000E+00  -2.03444401899390E-09
     -1.36445520022598E-34  -2.03444401899390E-09   5.31069604019474E-18   0.00000000000000E+00   0.00000000000000E+00
      0.00000000000000E+00   0.00000000000000E+00   0.00000000000000E+00   0.00000000000000E+00   0.00000000000000E+00
      2.83272628354092E-18   0.00000000000000E+00   0.00000000000000E+00   0.00000000000000E+00   0.00000000000000E+00
     -2.36256130247443E-21   1.44440969434255E-34  -2.36256130247428E-21  -1.38621378624993E-17   1.00377879441455E-01
      1.00377879024185E-01   0.00000000000000E+00   0.00000000000000E+00   2.03444401899626E-09  -7.99544941165771E-36
      2.03444401899626E-09   5.71871553876364E-18
      1.26718464466809E-01
      0.00000000000000E+00   4.20422039059156E-10   0.00000000000000E+00   0.00000000000000E+00  -2.07071131633806E-09
     -1.83380568393031E-34  -2.07071131633806E-09   5.30774311886386E-18   0.00000000000000E+00   0.00000000000000E+00
      0.00000000000000E+00   0.00000000000000E+00   0.00000000000000E+00   0.00000000000000E+00   0.00000000000000E+00
      2.72463837854882E-18   0.00000000000000E+00   0.00000000000000E+00   0.00000000000000E+00   0.00000000000000E+00
     -1.07352016004427E-20   1.89590762335278E-34  -1.07352016004425E-20  -1.38624030193969E-17   1.08977879441455E-01
      1.08977879017170E-01   0.00000000000000E+00   0.00000000000000E+00   2.07071131634879E-09  -6.21019394224691E-36
      2.07071131634879E-09   5.83002152198423E-18
      1.36718464466809E-01
      0.00000000000000E+00   4.27554035476347E-10   0.00000000000000E+00   0.00000000000000E+00  -2.10728302064498E-09
     -1.57948438082517E-34  -2.10728302064498E-09   5.30479129044054E-18   0.00000000000000E+00   0.00000000000000E+00
      0.00000000000000E+00   0.00000000000000E+00   0.00000000000000E+00   0.00000000000000E+00   0.00000000000000E+00
      2.61660269492434E-18   0.00000000000000E+00   0.00000000000000E+00   0.00000000000000E+00   0.00000000000000E+00
     -9.18535607803879E-21   1.61457691385861E-34  -9.18535607803862E-21  -1.38628004351517E-17   1.17577879441455E-01
      1.17577879010104E-01   0.00000000000000E+00   0.00000000000000E+00   2.10728302065417E-09  -3.50925330334388E-36
      2.10728302065417E-09   5.94140644978678E-18
      1.46718464466809E-01
      0.00000000000000E+00   4.34749218521495E-10   0.00000000000000E+00   0.00000000000000E+00  -2.14421450389545E-09
     -1.86326757215055E-34  -2.14421450389545E-09   5.30184049530786E-18   0.00000000000000E+00   0.00000000000000E+00
      0.00000000000000E+00   0.00000000000000E+00   0.00000000000000E+00   0.00000000000000E+00   0.00000000000000E+00
      2.50861541136461E-18   0.00000000000000E+00   0.00000000000000E+00   0.00000000000000E+00   0.00000000000000E+00
     -8.39214426935653E-21   1.89576304982637E-34  -8.39214426935634E-21  -1.38633178668838E-17   1.26177879441455E-01
      1.26177879002968E-01   0.00000000000000E+00   0.00000000000000E+00   2.14421450390384E-09  -3.24954776758191E-36
      2.14421450390384E-09   6.05286196021137E-18
      1.56718464466809E-01
      0.00000000000000E+00   4.42014174652837E-10   0.00000000000000E+00   0.00000000000000E+00  -2.18153789638054E-09
     -1.84432995948847E-34  -2.18153789638054E-09   5.29889068038943E-18   0.00000000000000E+00   0.00000000000000E+00
      0.00000000000000E+00   0.00000000000000E+00   0.00000000000000E+00   0.00000000000000E+00   0.00000000000000E+00
      2.40067324886749E-18   0.00000000000000E+00   0.00000000000000E+00   0.00000000000000E+00   0.00000000000000E+00
     -9.85648343818827E-21   1.86300121496821E-34  -9.85648343818808E-21  -1.38639443522021E-17   1.34777879441455E-01
      1.34777878995756E-01   0.00000000000000E+00   0.00000000000000E+00   2.18153789639040E-09  -1.86712554797336E-36
      2.18153789639040E-09   6.16438042294524E-18
      1.66718464466809E-01
      0.00000000000000E+00   4.49351862461490E-10   0.00000000000000E+00   0.00000000000000E+00  -2.21926726649381E-09
     -1.76724373990029E-34  -2.21926726649381E-09   5.29594179804130E-18   0.00000000000000E+00   0.00000000000000E+00
      0.00000000000000E+00   0.00000000000000E+00   0.00000000000000E+00   0.00000000000000E+00   0.00000000000000E+00
      2.29277336839537E-18   0.00000000000000E+00   0.00000000000000E+00   0.00000000000000E+00   0.00000000000000E+00
      1.10893539288585E-20   1.78464557206083E-34   1.10893539288587E-20  -1.38646700236800E-17   1.43377879441455E-01
      1.43377878988468E-01   0.00000000000000E+00   0.00000000000000E+00   2.21926726648272E-09  -1.74018321605381E-36
      2.21926726648272E-09   6.27595485724328E-18
      1.76718464466809E-01
      0.00000000000000E+00   4.56762866182034E-10   0.00000000000000E+00   0.00000000000000E+00  -2.25740492513379E-09
     -1.47793326530911E-34  -2.25740492513379E-09   5.29299380581184E-18   0.00000000000000E+00   0.00000000000000E+00
      0.00000000000000E+00   0.00000000000000E+00   0.00000000000000E+00   0.00000000000000E+00   0.00000000000000E+00
      2.18491332267223E-18   0.00000000000000E+00   0.00000000000000E+00   0.00000000000000E+00   0.00000000000000E+00
     -1.22726871362166E-21   1.49136313251157E-34  -1.22726871362151E-21  -1.38654859967859E-17   1.51977879441455E-01
      1.51977878981109E-01   0.00000000000000E+00   0.00000000000000E+00   2.25740492513502E-09  -1.34298672024585E-36
      2.25740492513502E-09   6.38757886830183E-18
      1.86718464466809E-01
      0.00000000000000E+00   4.64246281824138E-10   0.00000000000000E+00   0.00000000000000E+00  -2.29594656970831E-09