DF-ISE text

Info {
  version   = 1.0
  type      = xyplot
  datasets  = [
    "time"
    "source OuterVoltage" "source InnerVoltage" "source QuasiFermiPotential" "source DisplacementCurrent" "source eCurrent"
    "source hCurrent" "source TotalCurrent" "source Charge" "gate OuterVoltage" "gate InnerVoltage"
    "gate QuasiFermiPotential" "gate DisplacementCurrent" "gate eCurrent" "gate hCurrent" "gate TotalCurrent"
    "gate Charge" "substrate OuterVoltage" "substrate InnerVoltage" "substrate QuasiFermiPotential" "substrate DisplacementCurrent"
    "substrate eCurrent" "substrate hCurrent" "substrate TotalCurrent" "substrate Charge" "drain OuterVoltage"
    "drain InnerVoltage" "drain QuasiFermiPotential" "drain DisplacementCurrent" "drain eCurrent" "drain hCurrent"
    "drain TotalCurrent" "drain Charge" ]
  functions = [
    Time
    OuterVoltage InnerVoltage QuasiFermiPotential DisplacementCurrent eCurrent
    hCurrent TotalCurrent Charge OuterVoltage InnerVoltage
    QuasiFermiPotential DisplacementCurrent eCurrent hCurrent TotalCurrent
    Charge OuterVoltage InnerVoltage QuasiFermiPotential DisplacementCurrent
    eCurrent hCurrent TotalCurrent Charge OuterVoltage
    InnerVoltage QuasiFermiPotential DisplacementCurrent eCurrent hCurrent
    TotalCurrent Charge ]
}

Data {
      0.00000000000000E+00
      0.00000000000000E+00   0.00000000000000E+00   0.00000000000000E+00   0.00000000000000E+00   1.66971177924175E-21
     -1.52591230467083E-34   1.66971177924159E-21   4.71728935911647E-18   0.00000000000000E+00   0.00000000000000E+00
      0.00000000000000E+00   0.00000000000000E+00   0.00000000000000E+00   0.00000000000000E+00   0.00000000000000E+00
      2.79456672318800E-18   0.00000000000000E+00   0.00000000000000E+00   0.00000000000000E+00   0.00000000000000E+00
     -1.55913322322727E-21   3.62403004599720E-34  -1.55913322322691E-21  -1.13319675067003E-17   0.00000000000000E+00
      0.00000000000000E+00   0.00000000000000E+00   0.00000000000000E+00  -1.10578556014477E-22  -2.09811774132636E-34
     -1.10578556014687E-22   3.82011142439580E-18
      0.00000000000000E+00
      0.00000000000000E+00   0.00000000000000E+00   0.00000000000000E+00   0.00000000000000E+00  -2.16349136998314E-20
     -1.96384322718675E-34  -2.16349136998316E-20   4.71537699083105E-18   0.00000000000000E+00   0.00000000000000E+00
      0.00000000000000E+00   0.00000000000000E+00   0.00000000000000E+00   0.00000000000000E+00   0.00000000000000E+00
      2.78842065342718E-18   0.00000000000000E+00   0.00000000000000E+00   0.00000000000000E+00   0.00000000000000E+00
      3.68965659208418E-20   3.65162325263083E-34   3.68965659208422E-20  -1.13225545413119E-17   0.00000000000000E+00
      0.00000000000000E+00   0.00000000000000E+00   0.00000000000000E+00  -1.52616522210104E-20  -1.68778002544408E-34
     -1.52616522210105E-20   3.81875689705370E-18
      1.00000000000000E-03
      0.00000000000000E+00   4.68194144191497E-11   0.00000000000000E+00   0.00000000000000E+00  -2.20153776744576E-10
     -1.45994694856252E-34  -2.20153776744576E-10   4.71507433479831E-18   0.00000000000000E+00   0.00000000000000E+00
      0.00000000000000E+00   0.00000000000000E+00   0.00000000000000E+00   0.00000000000000E+00   0.00000000000000E+00
      2.77833467711671E-18   0.00000000000000E+00   0.00000000000000E+00   0.00000000000000E+00   0.00000000000000E+00
      6.44351542303202E-20   3.17352634017620E-34   6.44351542303205E-20  -1.13221380720750E-17   8.60000000000000E-04
      8.59999952743677E-04   0.00000000000000E+00   0.00000000000000E+00   2.20153776680141E-10  -1.71357939161368E-34
      2.20153776680141E-10   3.82872906015998E-18
      2.08666666666667E-03
      0.00000000000000E+00   9.46723152095663E-11   0.00000000000000E+00   0.00000000000000E+00  -4.45153796731152E-10
     -1.82655997539132E-34  -4.45153796731152E-10   4.71474554248774E-18   0.00000000000000E+00   0.00000000000000E+00
      0.00000000000000E+00   0.00000000000000E+00   0.00000000000000E+00   0.00000000000000E+00   0.00000000000000E+00
      2.76737806792946E-18   0.00000000000000E+00   0.00000000000000E+00   0.00000000000000E+00   0.00000000000000E+00
      9.33458750481030E-16   3.63105190770467E-34   9.33458750481030E-16  -1.13216932114335E-17   1.79453333333333E-03
      1.79453323777839E-03   0.00000000000000E+00   0.00000000000000E+00   4.45152863272402E-10  -1.80449193231335E-34
      4.45152863272402E-10   3.83956960101631E-18
      3.28200000000000E-03
      0.00000000000000E+00   1.43731457989638E-10   0.00000000000000E+00   0.00000000000000E+00  -6.75805604020598E-10
     -2.01101945470550E-34  -6.75805604020598E-10   4.71438398271365E-18   0.00000000000000E+00   0.00000000000000E+00
      0.00000000000000E+00   0.00000000000000E+00   0.00000000000000E+00   0.00000000000000E+00   0.00000000000000E+00
      2.75532992233716E-18   0.00000000000000E+00   0.00000000000000E+00   0.00000000000000E+00   0.00000000000000E+00
      1.42308600559538E-20   3.97880191324057E-34   1.42308600559542E-20  -1.13212130054950E-17   2.82252000000000E-03
      2.82251985493030E-03   0.00000000000000E+00   0.00000000000000E+00   6.75805604006367E-10  -1.96778245853507E-34
      6.75805604006367E-10   3.85149910044414E-18
      4.58889777777778E-03
      0.00000000000000E+00   1.93266270728926E-10   0.00000000000000E+00   0.00000000000000E+00  -9.08672253728517E-10
     -1.45277560188093E-34  -9.08672253728517E-10   4.71398880925658E-18   0.00000000000000E+00   0.00000000000000E+00
      0.00000000000000E+00   0.00000000000000E+00   0.00000000000000E+00   0.00000000000000E+00   0.00000000000000E+00
      2.74216214071704E-18   0.00000000000000E+00   0.00000000000000E+00   0.00000000000000E+00   0.00000000000000E+00
      3.64636456457960E-20   3.26070581450664E-34   3.64636456457964E-20  -1.13206987778635E-17   3.94645208888889E-03
      3.94645189382524E-03   0.00000000000000E+00   0.00000000000000E+00   9.08672253692054E-10  -1.80793021262570E-34
      9.08672253692054E-10   3.86454782788992E-18
      6.01777268148148E-03
      0.00000000000000E+00   2.42807024782960E-10   0.00000000000000E+00   0.00000000000000E+00  -1.14154266148725E-09
     -1.88773716941590E-34  -1.14154266148725E-09   4.71355690758309E-18   0.00000000000000E+00   0.00000000000000E+00
      0.00000000000000E+00   0.00000000000000E+00   0.00000000000000E+00   0.00000000000000E+00   0.00000000000000E+00
      2.72777106080503E-18   0.00000000000000E+00   0.00000000000000E+00   0.00000000000000E+00   0.00000000000000E+00
     -2.85192220452273E-20   3.74686095400054E-34  -2.85192220452269E-20  -1.13201492557130E-17   5.17528450607408E-03
      5.17528426101160E-03   0.00000000000000E+00   0.00000000000000E+00   1.14154266151577E-09  -1.85912378458464E-34
      1.14154266151577E-09   3.87882128732486E-18
      7.58000924286420E-03
      0.00000000000000E+00   2.91843865754626E-10   0.00000000000000E+00   0.00000000000000E+00  -1.37201947989913E-09
     -2.01260604922010E-34  -1.37201947989913E-09   4.71308487581298E-18   0.00000000000000E+00   0.00000000000000E+00
      0.00000000000000E+00   0.00000000000000E+00   0.00000000000000E+00   0.00000000000000E+00   0.00000000000000E+00
      2.71204347723378E-18   0.00000000000000E+00   0.00000000000000E+00   0.00000000000000E+00   0.00000000000000E+00
      2.38603161420051E-20   3.49550616991855E-34   2.38603161420054E-20  -1.13195633603011E-17   6.51880794886321E-03
      6.51880765431169E-03   0.00000000000000E+00   0.00000000000000E+00   1.37201947987527E-09  -1.48290012069845E-34
      1.37201947987527E-09   3.89443500725437E-18
      9.28805454997597E-03
      0.00000000000000E+00   3.39833644663115E-10   0.00000000000000E+00   0.00000000000000E+00  -1.59755068319558E-09
     -1.76601136549611E-34  -1.59755068319558E-09   4.71256899828063E-18   0.00000000000000E+00   0.00000000000000E+00
      0.00000000000000E+00   0.00000000000000E+00   0.00000000000000E+00   0.00000000000000E+00   0.00000000000000E+00
      2.69485576841648E-18   0.00000000000000E+00   0.00000000000000E+00   0.00000000000000E+00   0.00000000000000E+00
     -1.81013696427199E-20   3.35219070318536E-34  -1.81013696427196E-20  -1.13189402705191E-17   7.98772691297934E-03
      7.98772656999680E-03   0.00000000000000E+00   0.00000000000000E+00   1.59755068321368E-09  -1.58617933768925E-34
      1.59755068321368E-09   3.91151550382193E-18
      1.11555174190848E-02
      0.00000000000000E+00   3.86212760610850E-10   0.00000000000000E+00   0.00000000000000E+00  -1.81549065649359E-09
     -1.75750321630333E-34  -1.81549065649359E-09   4.71200521657265E-18   0.00000000000000E+00   0.00000000000000E+00
      0.00000000000000E+00   0.00000000000000E+00   0.00000000000000E+00   0.00000000000000E+00   0.00000000000000E+00
      2.67607294164687E-18   0.00000000000000E+00   0.00000000000000E+00   0.00000000000000E+00   0.00000000000000E+00
      1.03834496509056E-20   3.16925548000661E-34   1.03834496509059E-20  -1.13182794946917E-17   9.59374498041296E-03
      9.59374459062637E-03   0.00000000000000E+00   0.00000000000000E+00   1.81549065648320E-09  -1.41175226370328E-34
      1.81549065648320E-09   3.93020133647215E-18
      1.31972768226439E-02
      0.00000000000000E+00   4.30414771578623E-10   0.00000000000000E+00   0.00000000000000E+00  -2.02318322557751E-09
     -1.76412523599402E-34  -2.02318322557751E-09   4.71138909787597E-18   0.00000000000000E+00   0.00000000000000E+00
      0.00000000000000E+00   0.00000000000000E+00   0.00000000000000E+00   0.00000000000000E+00   0.00000000000000E+00
      2.65554759107962E-18   0.00000000000000E+00   0.00000000000000E+00   0.00000000000000E+00   0.00000000000000E+00
     -2.19974578204141E-20   3.14468434857986E-34  -2.19974578204138E-20  -1.13175809554209E-17   1.13496580674737E-02
      1.13496576330818E-02   0.00000000000000E+00   0.00000000000000E+00   2.02318322559951E-09  -1.38055911258584E-34
      2.02318322559951E-09   3.95064426646531E-18
      1.54296004372017E-02
      0.00000000000000E+00   4.71892272535158E-10   0.00000000000000E+00   0.00000000000000E+00  -2.21806513940651E-09
     -1.58976674815529E-34  -2.21806513940651E-09   4.71071580029877E-18   0.00000000000000E+00   0.00000000000000E+00
      0.00000000000000E+00   0.00000000000000E+00   0.00000000000000E+00   0.00000000000000E+00   0.00000000000000E+00
      2.63311875878050E-18   0.00000000000000E+00   0.00000000000000E+00   0.00000000000000E+00   0.00000000000000E+00
     -5.97577018729169E-20   2.96941466612899E-34  -5.97577018729166E-20  -1.13168450856380E-17   1.32694563759935E-02
      1.32694558997474E-02   0.00000000000000E+00   0.00000000000000E+00   2.21806513946627E-09  -1.37964791797370E-34
      2.21806513946627E-09   3.97301052655875E-18
      1.78702742557850E-02
      0.00000000000000E+00   5.10144928010541E-10   0.00000000000000E+00   0.00000000000000E+00  -2.39779803501128E-09
     -1.65978132871686E-34  -2.39779803501128E-09   4.70998003483375E-18   0.00000000000000E+00   0.00000000000000E+00
      0.00000000000000E+00   0.00000000000000E+00   0.00000000000000E+00   0.00000000000000E+00   0.00000000000000E+00
      2.60861068729122E-18   0.00000000000000E+00   0.00000000000000E+00   0.00000000000000E+00   0.00000000000000E+00
     -1.87154844325058E-20   2.82433349403892E-34  -1.87154844325055E-20  -1.13160729349488E-17   1.53684358599751E-02
      1.53684353451311E-02   0.00000000000000E+00   0.00000000000000E+00   2.39779803502999E-09  -1.16455216532206E-34
      2.39779803502999E-09   3.99748221282384E-18
      2.05387442974361E-02
      0.00000000000000E+00   5.44749834580001E-10   0.00000000000000E+00   0.00000000000000E+00  -2.56041128779908E-09
     -2.06431100192262E-34  -2.56041128779908E-09   4.70917602367655E-18   0.00000000000000E+00   0.00000000000000E+00
      0.00000000000000E+00   0.00000000000000E+00   0.00000000000000E+00   0.00000000000000E+00   0.00000000000000E+00
      2.58183145581984E-18   0.00000000000000E+00   0.00000000000000E+00   0.00000000000000E+00   0.00000000000000E+00
     -1.34822655575805E-20   3.25492499953013E-34  -1.34822655575802E-20  -1.13152662892678E-17   1.76633200957950E-02
      1.76633195460364E-02   0.00000000000000E+00   0.00000000000000E+00   2.56041128781257E-09  -1.19061399760751E-34
      2.56041128781257E-09   4.02425880977140E-18
      2.34562715429746E-02
      0.00000000000000E+00   5.75395196689913E-10   0.00000000000000E+00   0.00000000000000E+00  -2.70446071426565E-09
     -1.30951816271300E-34  -2.70446071426565E-09   4.70829745447688E-18   0.00000000000000E+00   0.00000000000000E+00
      0.00000000000000E+00   0.00000000000000E+00   0.00000000000000E+00   0.00000000000000E+00   0.00000000000000E+00
      2.55257148641108E-18   0.00000000000000E+00   0.00000000000000E+00   0.00000000000000E+00   0.00000000000000E+00
      8.51637995029965E-22   2.46858469460230E-34   8.51637995030212E-22  -1.13144278019704E-17   2.01723935269581E-02
      2.01723929462835E-02   0.00000000000000E+00   0.00000000000000E+00   2.70446071426479E-09  -1.15906653188930E-34
      2.70446071426479E-09   4.05355886108244E-18
      2.66461013314300E-02
      0.00000000000000E+00   6.01915778726364E-10   0.00000000000000E+00   0.00000000000000E+00  -2.82919466161066E-09
     -1.66665645606182E-34  -2.82919466161066E-09   4.70733743001569E-18   0.00000000000000E+00   0.00000000000000E+00
      0.00000000000000E+00   0.00000000000000E+00   0.00000000000000E+00   0.00000000000000E+00   0.00000000000000E+00
      2.52060190245621E-18   0.00000000000000E+00   0.00000000000000E+00   0.00000000000000E+00   0.00000000000000E+00
     -1.42750656941411E-20   2.66816381325352E-34  -1.42750656941408E-20  -1.13135611298338E-17   2.29156471450298E-02
      2.29156465376044E-02   0.00000000000000E+00   0.00000000000000E+00   2.82919466162493E-09  -1.00150735719170E-34
      2.82919466162493E-09   4.08562179736194E-18
      3.01336485668079E-02
      0.00000000000000E+00   6.24325911934196E-10   0.00000000000000E+00   0.00000000000000E+00  -2.93470832846205E-09
     -1.56523743514189E-34  -2.93470832846205E-09   4.70628841294753E-18   0.00000000000000E+00   0.00000000000000E+00
      0.00000000000000E+00   0.00000000000000E+00   0.00000000000000E+00   0.00000000000000E+00   0.00000000000000E+00
      2.48567272682096E-18   0.00000000000000E+00   0.00000000000000E+00   0.00000000000000E+00   0.00000000000000E+00
      1.03823851971766E-20   2.39019877389828E-34   1.03823851971769E-20  -1.13126710754668E-17   2.59149377674548E-02
      2.59149371374308E-02   0.00000000000000E+00   0.00000000000000E+00   2.93470832845167E-09  -8.24961338756390E-35
      2.93470832845167E-09   4.12070993569827E-18
      3.39467002108211E-02
      0.00000000000000E+00   6.42844897284988E-10   0.00000000000000E+00   0.00000000000000E+00  -3.02206250353100E-09
     -1.90256818421154E-34  -3.02206250353100E-09   4.70514216515524E-18   0.00000000000000E+00   0.00000000000000E+00
      0.00000000000000E+00   0.00000000000000E+00   0.00000000000000E+00   0.00000000000000E+00   0.00000000000000E+00
      2.44751090609047E-18   0.00000000000000E+00   0.00000000000000E+00   0.00000000000000E+00   0.00000000000000E+00
      6.15479719513749E-20   2.66639231417640E-34   6.15479719513752E-20  -1.13117637393112E-17   2.91941621813061E-02
      2.91941615326160E-02   0.00000000000000E+00   0.00000000000000E+00   3.02206250346945E-09  -7.63824129964858E-35
      3.02206250346945E-09   4.15911066806548E-18
      3.81156366749421E-02
      0.00000000000000E+00   6.57909803954534E-10   0.00000000000000E+00   0.00000000000000E+00  -3.09334137420899E-09
     -1.80554174015561E-34  -3.09334137420899E-09   4.70388968109137E-18   0.00000000000000E+00   0.00000000000000E+00
      0.00000000000000E+00   0.00000000000000E+00   0.00000000000000E+00   0.00000000000000E+00   0.00000000000000E+00
      2.40581812869953E-18   0.00000000000000E+00   0.00000000000000E+00   0.00000000000000E+00   0.00000000000000E+00
      1.15225180143028E-19   2.51752684170540E-34   1.15225180143028E-19  -1.13108466575213E-17   3.27794475404502E-02
      3.27794468765871E-02   0.00000000000000E+00   0.00000000000000E+00   3.09334137409376E-09  -7.11985101549787E-35
      3.09334137409376E-09   4.20113884773037E-18
      4.26736738757145E-02
      0.00000000000000E+00   6.70164103969849E-10   0.00000000000000E+00   0.00000000000000E+00  -3.15159599166257E-09
     -1.64494963241001E-34  -3.15159599166257E-09   4.70252111497151E-18   0.00000000000000E+00   0.00000000000000E+00
      0.00000000000000E+00   0.00000000000000E+00   0.00000000000000E+00   0.00000000000000E+00   0.00000000000000E+00
      2.36026842690840E-18   0.00000000000000E+00   0.00000000000000E+00   0.00000000000000E+00   0.00000000000000E+00
      1.69516799599834E-19   2.24265828082793E-34   1.69516799599834E-19  -1.13099289378590E-17   3.66993595331145E-02
      3.66993588569250E-02   0.00000000000000E+00   0.00000000000000E+00   3.15159599149305E-09  -5.97708648417923E-35
      3.15159599149305E-09   4.24713939597906E-18
      4.76571278818923E-02
      0.00000000000000E+00   6.80413539080018E-10   0.00000000000000E+00   0.00000000000000E+00  -3.20063389855724E-09
     -2.09471443478423E-34  -3.20063389855724E-09   4.70102570139526E-18   0.00000000000000E+00   0.00000000000000E+00
      0.00000000000000E+00   0.00000000000000E+00   0.00000000000000E+00   0.00000000000000E+00   0.00000000000000E+00
      2.31050553783208E-18   0.00000000000000E+00   0.00000000000000E+00   0.00000000000000E+00   0.00000000000000E+00
      2.36285749208251E-19   2.63980607364215E-34   2.36285749208251E-19  -1.13090213813868E-17   4.09851299784274E-02
      4.09851292919495E-02   0.00000000000000E+00   0.00000000000000E+00   3.20063389832096E-09  -5.45091638857919E-35
      3.20063389832096E-09   4.29749014215944E-18
      5.31057042619801E-02
      0.00000000000000E+00   6.89545010589263E-10   0.00000000000000E+00   0.00000000000000E+00  -3.24463622850535E-09
     -1.58836791645321E-34  -3.24463622850535E-09   4.69939166989115E-18   0.00000000000000E+00   0.00000000000000E+00
      0.00000000000000E+00   0.00000000000000E+00   0.00000000000000E+00   0.00000000000000E+00   0.00000000000000E+00
      2.25614002291384E-18   0.00000000000000E+00   0.00000000000000E+00   0.00000000000000E+00   0.00000000000000E+00
     -1.00797874347691E-20   2.03702518758104E-34  -1.00797874347689E-20  -1.13081366129988E-17   4.56709056653029E-02
      4.56709049696862E-02   0.00000000000000E+00   0.00000000000000E+00   3.24463622851542E-09  -4.48657271127833E-35
      3.24463622851542E-09   4.35260492019374E-18
      5.90264905950087E-02
      0.00000000000000E+00   6.98356781832267E-10   0.00000000000000E+00   0.00000000000000E+00  -3.28734912084744E-09
     -1.70244100800115E-34  -3.28734912084744E-09   4.69761703762154E-18   0.00000000000000E+00   0.00000000000000E+00
      0.00000000000000E+00   0.00000000000000E+00   0.00000000000000E+00   0.00000000000000E+00   0.00000000000000E+00
      2.19710812957653E-18   0.00000000000000E+00   0.00000000000000E+00   0.00000000000000E+00   0.00000000000000E+00
      3.31755757598946E-20   2.09939427874113E-34   3.31755757598948E-20  -1.13072939998861E-17   5.07627819117075E-02
      5.07627812072996E-02   0.00000000000000E+00   0.00000000000000E+00   3.28734912081426E-09  -3.96953270739984E-35
      3.28734912081426E-09   4.41256883268806E-18
      6.54604117435666E-02
      0.00000000000000E+00   7.07521885844527E-10   0.00000000000000E+00   0.00000000000000E+00  -3.33192192702695E-09
     -1.44164530995642E-34  -3.33192192702695E-09   4.69568968230776E-18   0.00000000000000E+00   0.00000000000000E+00
      0.00000000000000E+00   0.00000000000000E+00   0.00000000000000E+00   0.00000000000000E+00   0.00000000000000E+00
      2.13300862829152E-18   0.00000000000000E+00   0.00000000000000E+00   0.00000000000000E+00   0.00000000000000E+00
      4.05316797136436E-20   1.72733517066680E-34   4.05316797136438E-20  -1.13065086931412E-17   5.62959540994672E-02
      5.62959533859376E-02   0.00000000000000E+00   0.00000000000000E+00   3.33192192698642E-09  -2.85689860710378E-35
      3.33192192698642E-09   4.47781038254194E-18
      7.24519393916661E-02
      0.00000000000000E+00   7.17478494805144E-10   0.00000000000000E+00   0.00000000000000E+00  -3.38040774281155E-09
     -1.94569814335663E-34  -3.38040774281155E-09   4.69359643770984E-18   0.00000000000000E+00   0.00000000000000E+00
      0.00000000000000E+00   0.00000000000000E+00   0.00000000000000E+00   0.00000000000000E+00   0.00000000000000E+00
      2.06340546628601E-18   0.00000000000000E+00   0.00000000000000E+00   0.00000000000000E+00   0.00000000000000E+00
     -2.56700589369180E-20   2.18122481908242E-34  -2.56700589369178E-20  -1.13057976267193E-17   6.23086678768328E-02
      6.23086671534108E-02   0.00000000000000E+00   0.00000000000000E+00   3.38040774283722E-09  -2.35526675725796E-35
      3.38040774283722E-09   4.54879572272345E-18
      8.00493994359342E-02
      0.00000000000000E+00   7.28481520316399E-10   0.00000000000000E+00   0.00000000000000E+00  -3.43402315682031E-09
     -1.68219612683988E-34  -3.43402315682031E-09   4.69132300547462E-18   0.00000000000000E+00   0.00000000000000E+00
      0.00000000000000E+00   0.00000000000000E+00   0.00000000000000E+00   0.00000000000000E+00   0.00000000000000E+00
      1.98782478691102E-18   0.00000000000000E+00   0.00000000000000E+00   0.00000000000000E+00   0.00000000000000E+00
     -4.12111476759984E-21   1.90661078400228E-34  -4.12111476759965E-21  -1.13051796574118E-17   6.88424835149034E-02
      6.88424827805666E-02   0.00000000000000E+00   0.00000000000000E+00   3.43402315682443E-09  -2.24414657162397E-35
      3.43402315682443E-09   4.62603186502615E-18
      8.83053060173722E-02
      0.00000000000000E+00   7.40642615252644E-10   0.00000000000000E+00   0.00000000000000E+00  -3.49330681591352E-09
     -1.84246703096138E-34  -3.49330681591352E-09   4.68885386458726E-18   0.00000000000000E+00   0.00000000000000E+00
      0.00000000000000E+00   0.00000000000000E+00   0.00000000000000E+00   0.00000000000000E+00   0.00000000000000E+00
      1.90575173477041E-18   0.00000000000000E+00   0.00000000000000E+00   0.00000000000000E+00   0.00000000000000E+00
     -2.47605225174144E-20   2.00811636113518E-34  -2.47605225174142E-20  -1.13046757523060E-17   7.59425631749401E-02
      7.59425624285520E-02   0.00000000000000E+00   0.00000000000000E+00   3.49330681593828E-09  -1.65649330173805E-35
      3.49330681593828E-09   4.71007015294835E-18
      9.72767245025349E-02
      0.00000000000000E+00   7.53993958197374E-10   0.00000000000000E+00   0.00000000000000E+00  -3.55842290711310E-09
     -1.63357773790723E-34  -3.55842290711310E-09   4.68617216375205E-18   0.00000000000000E+00   0.00000000000000E+00
      0.00000000000000E+00   0.00000000000000E+00   0.00000000000000E+00   0.00000000000000E+00   0.00000000000000E+00
      1.81662687469740E-18   0.00000000000000E+00   0.00000000000000E+00   0.00000000000000E+00   0.00000000000000E+00
     -1.50666567112813E-20   1.76358894589508E-34  -1.50666567112811E-20  -1.13043090317111E-17   8.36579830721800E-02
      8.36579823125625E-02   0.00000000000000E+00   0.00000000000000E+00   3.55842290712816E-09  -1.30011207987844E-35
      3.55842290712816E-09   4.80150999326167E-18
      1.07025665923078E-01
      0.00000000000000E+00   7.68591557111089E-10   0.00000000000000E+00   0.00000000000000E+00  -3.62967740191915E-09
     -1.95460318406740E-34  -3.62967740191915E-09   4.68325959220149E-18   0.00000000000000E+00   0.00000000000000E+00
      0.00000000000000E+00   0.00000000000000E+00   0.00000000000000E+00   0.00000000000000E+00   0.00000000000000E+00
      1.71984215373552E-18   0.00000000000000E+00   0.00000000000000E+00   0.00000000000000E+00   0.00000000000000E+00
     -1.35251634000580E-20   2.05107704599147E-34  -1.35251634000578E-20  -1.13041046069286E-17   9.20420726938473E-02
      9.20420719197727E-02   0.00000000000000E+00   0.00000000000000E+00   3.62967740193267E-09  -9.64738619240746E-36
      3.62967740193267E-09   4.90100286099156E-18
      1.17025665923078E-01
      0.00000000000000E+00   7.83662005657420E-10   0.00000000000000E+00   0.00000000000000E+00  -3.70332102165532E-09
     -1.96964894765071E-34  -3.70332102165532E-09   4.68027353361752E-18   0.00000000000000E+00   0.00000000000000E+00
      0.00000000000000E+00   0.00000000000000E+00   0.00000000000000E+00   0.00000000000000E+00   0.00000000000000E+00
      1.62062673618233E-18   0.00000000000000E+00   0.00000000000000E+00   0.00000000000000E+00   0.00000000000000E+00
     -2.68047166041254E-20   2.03747147155388E-34  -2.68047166041252E-20  -1.13040850513014E-17   1.00642072693847E-01
      1.00642071904868E-01   0.00000000000000E+00   0.00000000000000E+00   3.70332102168212E-09  -6.78225239031712E-36
      3.70332102168212E-09   5.00318478150155E-18
      1.27025665923078E-01
      0.00000000000000E+00   7.98862249879540E-10   0.00000000000000E+00   0.00000000000000E+00  -3.77767704323244E-09
     -1.84887405458430E-34  -3.77767704323244E-09   4.67728888354505E-18   0.00000000000000E+00   0.00000000000000E+00
      0.00000000000000E+00   0.00000000000000E+00   0.00000000000000E+00   0.00000000000000E+00   0.00000000000000E+00
      1.52146692300002E-18   0.00000000000000E+00   0.00000000000000E+00   0.00000000000000E+00   0.00000000000000E+00
     -5.79838308114716E-20   1.89717027473674E-34  -5.79838308114714E-20  -1.13042397247547E-17   1.09242072693847E-01
      1.09242071889857E-01   0.00000000000000E+00   0.00000000000000E+00   3.77767704329042E-09  -4.82962201524406E-36
      3.77767704329042E-09   5.10548391820964E-18
      1.37025665923078E-01
      0.00000000000000E+00   8.14224102714916E-10   0.00000000000000E+00   0.00000000000000E+00  -3.85289515605484E-09
     -1.46460811566052E-34  -3.85289515605484E-09   4.67430553344505E-18   0.00000000000000E+00   0.00000000000000E+00
      0.00000000000000E+00   0.00000000000000E+00   0.00000000000000E+00   0.00000000000000E+00   0.00000000000000E+00
      1.42235676064963E-18   0.00000000000000E+00   0.00000000000000E+00   0.00000000000000E+00   0.00000000000000E+00
     -1.15116598718686E-20   1.50408955661825E-34  -1.15116598718685E-20  -1.13045523138835E-17   1.17842072693847E-01
      1.17842071874687E-01   0.00000000000000E+00   0.00000000000000E+00   3.85289515606635E-09  -3.94814409577294E-36
      3.85289515606635E-09   5.20789001978880E-18
      1.47025665923078E-01
      0.00000000000000E+00   8.29767795999525E-10   0.00000000000000E+00   0.00000000000000E+00  -3.92907090847213E-09
     -1.77650788691440E-34  -3.92907090847213E-09   4.67132338670883E-18   0.00000000000000E+00   0.00000000000000E+00
      0.00000000000000E+00   0.00000000000000E+00   0.00000000000000E+00   0.00000000000000E+00   0.00000000000000E+00
      1.32329108482046E-18   0.00000000000000E+00   0.00000000000000E+00   0.00000000000000E+00   0.00000000000000E+00
     -7.38363329901512E-21   1.80446853346633E-34  -7.38363329901494E-21  -1.13050082803066E-17   1.26442072693847E-01
      1.26442071859327E-01   0.00000000000000E+00   0.00000000000000E+00   3.92907090847951E-09  -2.79606465519243E-36
      3.92907090847951E-09   5.31039380877735E-18
      1.57025665923078E-01
      0.00000000000000E+00   8.45502253402693E-10   0.00000000000000E+00   0.00000000000000E+00  -4.00624634630208E-09
     -2.06286787101283E-34  -4.00624634630208E-09   4.66834235543914E-18   0.00000000000000E+00   0.00000000000000E+00
      0.00000000000000E+00   0.00000000000000E+00   0.00000000000000E+00   0.00000000000000E+00   0.00000000000000E+00
      1.22426537833985E-18   0.00000000000000E+00   0.00000000000000E+00   0.00000000000000E+00   0.00000000000000E+00
     -4.61312849908833E-20   2.08558325476340E-34  -4.61312849908831E-20  -1.13055945989801E-17   1.35042072693847E-01
      1.35042071843767E-01   0.00000000000000E+00   0.00000000000000E+00   4.00624634634820E-09  -2.27153837505704E-36
      4.00624634634820E-09   5.41298686520108E-18
      1.67025665923078E-01
      0.00000000000000E+00   8.61429220840888E-10   0.00000000000000E+00   0.00000000000000E+00  -4.08442938705489E-09
     -1.57114018144375E-34  -4.08442938705489E-09   4.66536235956857E-18   0.00000000000000E+00   0.00000000000000E+00
      0.00000000000000E+00   0.00000000000000E+00   0.00000000000000E+00   0.00000000000000E+00   0.00000000000000E+00
      1.12527567475875E-18   0.00000000000000E+00   0.00000000000000E+00   0.00000000000000E+00   0.00000000000000E+00
     -3.44966164174538E-20   1.59062670861328E-34  -3.44966164174536E-20  -1.13062995683077E-17   1.43642072693847E-01
      1.43642071828014E-01   0.00000000000000E+00   0.00000000000000E+00   4.08442938708939E-09  -1.94865271695229E-36
      4.08442938708939E-09   5.51566153398038E-18
      1.77025665923078E-01
      0.00000000000000E+00   8.77546880481480E-10   0.00000000000000E+00   0.00000000000000E+00  -4.16361152283560E-09
     -1.72714771433347E-34  -4.16361152283560E-09   4.66238332767057E-18   0.00000000000000E+00   0.00000000000000E+00
      0.00000000000000E+00   0.00000000000000E+00   0.00000000000000E+00   0.00000000000000E+00   0.00000000000000E+00
      1.02631852516034E-18   0.00000000000000E+00   0.00000000000000E+00   0.00000000000000E+00   0.00000000000000E+00
      2.93953898049230E-21   1.74071898399543E-34   2.93953898049247E-21  -1.13071127062245E-17   1.52242072693847E-01
      1.52242071812073E-01   0.00000000000000E+00   0.00000000000000E+00   4.16361152283266E-09  -1.35712696619601E-36
      4.16361152283266E-09   5.61841085339353E-18
      1.87025665923078E-01
      0.00000000000000E+00   8.93853086970041E-10   0.00000000000000E+00   0.00000000000000E+00  -4.24378318263693E-09