DF-ISE text

Info {
  version   = 1.0
  type      = xyplot
  datasets  = [
    "time"
    "source OuterVoltage" "source InnerVoltage" "source QuasiFermiPotential" "source DisplacementCurrent" "source eCurrent"
    "source hCurrent" "source TotalCurrent" "source Charge" "gate OuterVoltage" "gate InnerVoltage"
    "gate QuasiFermiPotential" "gate DisplacementCurrent" "gate eCurrent" "gate hCurrent" "gate TotalCurrent"
    "gate Charge" "substrate OuterVoltage" "substrate InnerVoltage" "substrate QuasiFermiPotential" "substrate DisplacementCurrent"
    "substrate eCurrent" "substrate hCurrent" "substrate TotalCurrent" "substrate Charge" "drain OuterVoltage"
    "drain InnerVoltage" "drain QuasiFermiPotential" "drain DisplacementCurrent" "drain eCurrent" "drain hCurrent"
    "drain TotalCurrent" "drain Charge" ]
  functions = [
    Time
    OuterVoltage InnerVoltage QuasiFermiPotential DisplacementCurrent eCurrent
    hCurrent TotalCurrent Charge OuterVoltage InnerVoltage
    QuasiFermiPotential DisplacementCurrent eCurrent hCurrent TotalCurrent
    Charge OuterVoltage InnerVoltage QuasiFermiPotential DisplacementCurrent
    eCurrent hCurrent TotalCurrent Charge OuterVoltage
    InnerVoltage QuasiFermiPotential DisplacementCurrent eCurrent hCurrent
    TotalCurrent Charge ]
}

Data {
      0.00000000000000E+00
      0.00000000000000E+00   0.00000000000000E+00   0.00000000000000E+00   0.00000000000000E+00  -7.15479442743031E-21
      5.44940422121560E-34  -7.15479442742976E-21   5.58178172519432E-18   0.00000000000000E+00   0.00000000000000E+00
      0.00000000000000E+00   0.00000000000000E+00   0.00000000000000E+00   0.00000000000000E+00   0.00000000000000E+00
      4.55424954442536E-18   0.00000000000000E+00   0.00000000000000E+00   0.00000000000000E+00   0.00000000000000E+00
      3.77397447935077E-21  -1.11196718158425E-33   3.77397447934966E-21  -1.48851339730212E-17   0.00000000000000E+00
      0.00000000000000E+00   0.00000000000000E+00   0.00000000000000E+00   3.38081994807954E-21   5.67026759462689E-34
      3.38081994808010E-21   4.74910270340157E-18
      0.00000000000000E+00
      0.00000000000000E+00   0.00000000000000E+00   0.00000000000000E+00   0.00000000000000E+00  -2.76889639215197E-19
      5.40225788007868E-34  -2.76889639215197E-19   5.57972314712325E-18   0.00000000000000E+00   0.00000000000000E+00
      0.00000000000000E+00   0.00000000000000E+00   0.00000000000000E+00   0.00000000000000E+00   0.00000000000000E+00
      4.54706935150835E-18   0.00000000000000E+00   0.00000000000000E+00   0.00000000000000E+00   0.00000000000000E+00
      3.74443234980949E-19  -1.11084192138461E-33   3.74443234980948E-19  -1.48742242114578E-17   0.00000000000000E+00
      0.00000000000000E+00   0.00000000000000E+00   0.00000000000000E+00  -9.75535957657521E-20   5.70616133376741E-34
     -9.75535957657515E-20   4.74743171282622E-18
      1.00000000000000E-03
      0.00000000000000E+00   1.63421324109448E-11   0.00000000000000E+00   0.00000000000000E+00  -8.21505195407422E-11
      5.62127825277935E-34  -8.21505195407422E-11   5.57944164706140E-18   0.00000000000000E+00   0.00000000000000E+00
      0.00000000000000E+00   0.00000000000000E+00   0.00000000000000E+00   0.00000000000000E+00   0.00000000000000E+00
      4.53591367580166E-18   0.00000000000000E+00   0.00000000000000E+00   0.00000000000000E+00   0.00000000000000E+00
      6.70682435011231E-21  -1.12868793585056E-33   6.70682435011118E-21  -1.48737668043354E-17   8.60000000000000E-04
      8.59999983590966E-04   0.00000000000000E+00   0.00000000000000E+00   8.21505195340354E-11   5.66560110572629E-34
      8.21505195340354E-11   4.75841148147240E-18
      2.08666666666667E-03
      0.00000000000000E+00   3.30921383591900E-11   0.00000000000000E+00   0.00000000000000E+00  -1.66343223882897E-10
      5.58076477643806E-34  -1.66343223882897E-10   5.57913580059341E-18   0.00000000000000E+00   0.00000000000000E+00
      0.00000000000000E+00   0.00000000000000E+00   0.00000000000000E+00   0.00000000000000E+00   0.00000000000000E+00
      4.52379375537666E-18   0.00000000000000E+00   0.00000000000000E+00   0.00000000000000E+00   0.00000000000000E+00
      1.00770720715154E-15  -1.09094510941213E-33   1.00770720715154E-15  -1.48732765292966E-17   1.79453333333333E-03
      1.79453330010593E-03   0.00000000000000E+00   0.00000000000000E+00   1.66342216175689E-10   5.32868631768323E-34
      1.66342216175689E-10   4.77034697332653E-18
      3.28200000000000E-03
      0.00000000000000E+00   5.03229880820546E-11   0.00000000000000E+00   0.00000000000000E+00  -2.52941467514074E-10
      5.61528471868105E-34  -2.52941467514074E-10   5.57879942921734E-18   0.00000000000000E+00   0.00000000000000E+00
      0.00000000000000E+00   0.00000000000000E+00   0.00000000000000E+00   0.00000000000000E+00   0.00000000000000E+00
      4.51046490027077E-18   0.00000000000000E+00   0.00000000000000E+00   0.00000000000000E+00   0.00000000000000E+00
      1.00884158725853E-19  -1.04790199307357E-33   1.00884158725852E-19  -1.48727452803405E-17   2.82252000000000E-03
      2.82251994947187E-03   0.00000000000000E+00   0.00000000000000E+00   2.52941467413190E-10   4.86373521205469E-34
      2.52941467413190E-10   4.78348095085238E-18
      4.58889777777778E-03
      0.00000000000000E+00   6.77894398754885E-11   0.00000000000000E+00   0.00000000000000E+00  -3.40710934823034E-10
      5.49125723607708E-34  -3.40710934823034E-10   5.57843173362292E-18   0.00000000000000E+00   0.00000000000000E+00
      0.00000000000000E+00   0.00000000000000E+00   0.00000000000000E+00   0.00000000000000E+00   0.00000000000000E+00
      4.49589562385928E-18   0.00000000000000E+00   0.00000000000000E+00   0.00000000000000E+00   0.00000000000000E+00
      8.61290777565749E-20  -1.05450455529036E-33   8.61290777565738E-20  -1.48721739803777E-17   3.94645208888889E-03
      3.94645202082371E-03   0.00000000000000E+00   0.00000000000000E+00   3.40710934736905E-10   5.05378831682650E-34
      3.40710934736905E-10   4.79784662289548E-18
      6.01777268148148E-03
      0.00000000000000E+00   8.53359412660737E-11   0.00000000000000E+00   0.00000000000000E+00  -4.28867876726381E-10
      5.69378767039770E-34  -4.28867876726381E-10   5.57802980233701E-18   0.00000000000000E+00   0.00000000000000E+00
      0.00000000000000E+00   0.00000000000000E+00   0.00000000000000E+00   0.00000000000000E+00   0.00000000000000E+00
      4.47997078060404E-18   0.00000000000000E+00   0.00000000000000E+00   0.00000000000000E+00   0.00000000000000E+00
     -4.23204264713016E-19  -1.04678818672647E-33  -4.23204264713017E-19  -1.48715605954573E-17   5.17528450607408E-03
      5.17528442039179E-03   0.00000000000000E+00   0.00000000000000E+00   4.28867877149586E-10   4.77409419686704E-34
      4.28867877149586E-10   4.81356001251624E-18
      7.58000924286420E-03
      0.00000000000000E+00   1.02790860449098E-10   0.00000000000000E+00   0.00000000000000E+00  -5.16549009176382E-10
      5.44417145025729E-34  -5.16549009176382E-10   5.57759045396367E-18   0.00000000000000E+00   0.00000000000000E+00
      0.00000000000000E+00   0.00000000000000E+00   0.00000000000000E+00   0.00000000000000E+00   0.00000000000000E+00
      4.46256457904829E-18   0.00000000000000E+00   0.00000000000000E+00   0.00000000000000E+00   0.00000000000000E+00
     -1.31475862135191E-19  -9.89270076744639E-34  -1.31475862135192E-19  -1.48709031898545E-17   6.51880794886321E-03
      6.51880784565605E-03   0.00000000000000E+00   0.00000000000000E+00   5.16549009307858E-10   4.44852931718910E-34
      5.16549009307858E-10   4.83074815684260E-18
      9.28805454997597E-03
      0.00000000000000E+00   1.19968477612506E-10   0.00000000000000E+00   0.00000000000000E+00  -6.02820762526710E-10
      5.54886073976051E-34  -6.02820762526710E-10   5.57711021220903E-18   0.00000000000000E+00   0.00000000000000E+00
      0.00000000000000E+00   0.00000000000000E+00   0.00000000000000E+00   0.00000000000000E+00   0.00000000000000E+00
      4.44353960207292E-18   0.00000000000000E+00   0.00000000000000E+00   0.00000000000000E+00   0.00000000000000E+00
     -4.04897525600952E-20  -9.73580490594998E-34  -4.04897525600962E-20  -1.48701999790577E-17   7.98772691297934E-03
      7.98772679252596E-03   0.00000000000000E+00   0.00000000000000E+00   6.02820762567199E-10   4.18694416618947E-34
      6.02820762567199E-10   4.84955016477571E-18
      1.11555174190848E-02
      0.00000000000000E+00   1.36672664415878E-10   0.00000000000000E+00   0.00000000000000E+00  -6.86698601912546E-10
      5.38751859256383E-34  -6.86698601912546E-10   5.57658527857058E-18   0.00000000000000E+00   0.00000000000000E+00
      0.00000000000000E+00   0.00000000000000E+00   0.00000000000000E+00   0.00000000000000E+00   0.00000000000000E+00
      4.42274573657775E-18   0.00000000000000E+00   0.00000000000000E+00   0.00000000000000E+00   0.00000000000000E+00
     -2.23044185036134E-19  -9.45670460015152E-34  -2.23044185036135E-19  -1.48694493924794E-17   9.59374498041296E-03
      9.59374484318892E-03   0.00000000000000E+00   0.00000000000000E+00   6.86698602135590E-10   4.06918600758768E-34
      6.86698602135590E-10   4.87011837733115E-18
      1.31972768226439E-02
      0.00000000000000E+00   1.52702280884732E-10   0.00000000000000E+00   0.00000000000000E+00  -7.67174231283168E-10
      5.75022778690011E-34  -7.67174231283168E-10   5.57601150248669E-18   0.00000000000000E+00   0.00000000000000E+00
      0.00000000000000E+00   0.00000000000000E+00   0.00000000000000E+00   0.00000000000000E+00   0.00000000000000E+00
      4.40001900495566E-18   0.00000000000000E+00   0.00000000000000E+00   0.00000000000000E+00   0.00000000000000E+00
      1.47605191044260E-20  -9.56716179450704E-34   1.47605191044251E-20  -1.48686501483742E-17   1.13496580674737E-02
      1.13496579141565E-02   0.00000000000000E+00   0.00000000000000E+00   7.67174231268407E-10   3.81693400760693E-34
      7.67174231268407E-10   4.89261964093195E-18
      1.54296004372017E-02
      0.00000000000000E+00   1.67858391318275E-10   0.00000000000000E+00   0.00000000000000E+00  -8.43251982667214E-10
      5.23926608907158E-34  -8.43251982667214E-10   5.57538434868515E-18   0.00000000000000E+00   0.00000000000000E+00
      0.00000000000000E+00   0.00000000000000E+00   0.00000000000000E+00   0.00000000000000E+00   0.00000000000000E+00
      4.37518028807400E-18   0.00000000000000E+00   0.00000000000000E+00   0.00000000000000E+00   0.00000000000000E+00
      2.90907211799336E-20  -8.81380118676554E-34   2.90907211799327E-20  -1.48678013408434E-17   1.32694563759935E-02
      1.32694562074602E-02   0.00000000000000E+00   0.00000000000000E+00   8.43251982638123E-10   3.57453509769396E-34
      8.43251982638123E-10   4.91723670408421E-18
      1.78702742557850E-02
      0.00000000000000E+00   1.81953374799669E-10   0.00000000000000E+00   0.00000000000000E+00  -9.13994864945658E-10
      5.42815016719974E-34  -9.13994864945658E-10   5.57469886144324E-18   0.00000000000000E+00   0.00000000000000E+00
      0.00000000000000E+00   0.00000000000000E+00   0.00000000000000E+00   0.00000000000000E+00   0.00000000000000E+00
      4.34803392875230E-18   0.00000000000000E+00   0.00000000000000E+00   0.00000000000000E+00   0.00000000000000E+00
     -8.46303085996995E-20  -8.78800408977790E-34  -8.46303085997004E-20  -1.48669025391948E-17   1.53684358599751E-02
      1.53684356772912E-02   0.00000000000000E+00   0.00000000000000E+00   9.13994865030289E-10   3.35985392257815E-34
      9.13994865030289E-10   4.94416974899932E-18
      2.05387442974361E-02
      0.00000000000000E+00   1.94821047623968E-10   0.00000000000000E+00   0.00000000000000E+00  -9.78575905822130E-10
      5.42929736405233E-34  -9.78575905822130E-10   5.57394962551316E-18   0.00000000000000E+00   0.00000000000000E+00
      0.00000000000000E+00   0.00000000000000E+00   0.00000000000000E+00   0.00000000000000E+00   0.00000000000000E+00
      4.31836620706348E-18   0.00000000000000E+00   0.00000000000000E+00   0.00000000000000E+00   0.00000000000000E+00
      1.33680854816838E-19  -8.51990136149964E-34   1.33680854816837E-19  -1.48659539046311E-17   1.76633200957950E-02
      1.76633199001927E-02   0.00000000000000E+00   0.00000000000000E+00   9.78575905688449E-10   3.09060399744730E-34
      9.78575905688449E-10   4.97363807205452E-18
      2.34562715429746E-02
      0.00000000000000E+00   2.06328948547700E-10   0.00000000000000E+00   0.00000000000000E+00  -1.03633937937883E-09
      5.37045622992755E-34  -1.03633937937883E-09   5.57313072330360E-18   0.00000000000000E+00   0.00000000000000E+00
      0.00000000000000E+00   0.00000000000000E+00   0.00000000000000E+00   0.00000000000000E+00   0.00000000000000E+00
      4.28594366986715E-18   0.00000000000000E+00   0.00000000000000E+00   0.00000000000000E+00   0.00000000000000E+00
     -4.32977472060374E-19  -8.05507334191163E-34  -4.32977472060375E-19  -1.48649563183607E-17   2.01723935269581E-02
      2.01723933198025E-02   0.00000000000000E+00   0.00000000000000E+00   1.03633937981181E-09   2.68461711198407E-34
      1.03633937981181E-09   5.00588192519000E-18
      2.66461013314300E-02
      0.00000000000000E+00   2.16390574458552E-10   0.00000000000000E+00   0.00000000000000E+00  -1.08686273212800E-09
      5.43402155997901E-34  -1.08686273212800E-09   5.57223568801882E-18   0.00000000000000E+00   0.00000000000000E+00
      0.00000000000000E+00   0.00000000000000E+00   0.00000000000000E+00   0.00000000000000E+00   0.00000000000000E+00
      4.25051130456971E-18   0.00000000000000E+00   0.00000000000000E+00   0.00000000000000E+00   0.00000000000000E+00
      1.91682371455577E-19  -8.16311946441104E-34   1.91682371455576E-19  -1.48639115270628E-17   2.29156471450298E-02
      2.29156469277730E-02   0.00000000000000E+00   0.00000000000000E+00   1.08686273193632E-09   2.72909790443203E-34
      1.08686273193632E-09   5.04116453447420E-18
      3.01336485668079E-02
      0.00000000000000E+00   2.24977636364678E-10   0.00000000000000E+00   0.00000000000000E+00  -1.13001772355802E-09
      5.63931218570839E-34  -1.13001772355802E-09   5.57125745233524E-18   0.00000000000000E+00   0.00000000000000E+00
      0.00000000000000E+00   0.00000000000000E+00   0.00000000000000E+00   0.00000000000000E+00   0.00000000000000E+00
      4.21179053975094E-18   0.00000000000000E+00   0.00000000000000E+00   0.00000000000000E+00   0.00000000000000E+00
     -2.10078330453790E-19  -7.95249607475179E-34  -2.10078330453791E-19  -1.48628223035837E-17   2.59149377674548E-02
      2.59149375415773E-02   0.00000000000000E+00   0.00000000000000E+00   1.13001772376810E-09   2.31318388904340E-34
      1.13001772376810E-09   5.07977431149750E-18
      3.39467002108211E-02
      0.00000000000000E+00   2.32130879192416E-10   0.00000000000000E+00   0.00000000000000E+00  -1.16602413748318E-09
      5.68199947662558E-34  -1.16602413748318E-09   5.57018829218747E-18   0.00000000000000E+00   0.00000000000000E+00
      0.00000000000000E+00   0.00000000000000E+00   0.00000000000000E+00   0.00000000000000E+00   0.00000000000000E+00
      4.16947705409158E-18   0.00000000000000E+00   0.00000000000000E+00   0.00000000000000E+00   0.00000000000000E+00
     -2.69038309091650E-19  -7.76269760073023E-34  -2.69038309091651E-19  -1.48616926208325E-17   2.91941621813061E-02
      2.91941619482479E-02   0.00000000000000E+00   0.00000000000000E+00   1.16602413775222E-09   2.08069812410465E-34
      1.16602413775222E-09   5.12202727455338E-18
      3.81156366749421E-02
      0.00000000000000E+00   2.37966951447518E-10   0.00000000000000E+00   0.00000000000000E+00  -1.19548370735258E-09
      5.60058654192407E-34  -1.19548370735258E-09   5.56901976522191E-18   0.00000000000000E+00   0.00000000000000E+00
      0.00000000000000E+00   0.00000000000000E+00   0.00000000000000E+00   0.00000000000000E+00   0.00000000000000E+00
      4.12323837471398E-18   0.00000000000000E+00   0.00000000000000E+00   0.00000000000000E+00   0.00000000000000E+00
     -3.05195018790294E-19  -7.52237811047634E-34  -3.05195018790295E-19  -1.48605278377604E-17   3.27794475404502E-02
      3.27794473015345E-02   0.00000000000000E+00   0.00000000000000E+00   1.19548370765777E-09   1.92179156855227E-34
      1.19548370765777E-09   5.16826969782451E-18
      4.26736738757145E-02
      0.00000000000000E+00   2.42678621416031E-10   0.00000000000000E+00   0.00000000000000E+00  -1.21937919944824E-09
      5.84272744223649E-34  -1.21937919944824E-09   5.56774264350154E-18   0.00000000000000E+00   0.00000000000000E+00
      0.00000000000000E+00   0.00000000000000E+00   0.00000000000000E+00   0.00000000000000E+00   0.00000000000000E+00
      4.07271124377873E-18   0.00000000000000E+00   0.00000000000000E+00   0.00000000000000E+00   0.00000000000000E+00
     -1.01905253423497E-18  -7.43375113146631E-34  -1.01905253423497E-18  -1.48593348957497E-17   3.66993595331145E-02
      3.66993592894720E-02   0.00000000000000E+00   0.00000000000000E+00   1.21937920046729E-09   1.59102368922982E-34
      1.21937920046729E-09   5.21888100846944E-18
      4.76571278818923E-02
      0.00000000000000E+00   2.46524055713609E-10   0.00000000000000E+00   0.00000000000000E+00  -1.23901910423056E-09
      5.54978609809751E-34  -1.23901910423056E-09   5.56634684001190E-18   0.00000000000000E+00   0.00000000000000E+00
      0.00000000000000E+00   0.00000000000000E+00   0.00000000000000E+00   0.00000000000000E+00   0.00000000000000E+00
      4.01749873092108E-18   0.00000000000000E+00   0.00000000000000E+00   0.00000000000000E+00   0.00000000000000E+00
     -1.32246233642303E-18  -6.97326427377078E-34  -1.32246233642303E-18  -1.48581225230521E-17   4.09851299784274E-02
      4.09851297309308E-02   0.00000000000000E+00   0.00000000000000E+00   1.23901910555302E-09   1.42347817567327E-34
      1.23901910555302E-09   5.27427695211915E-18
      5.31057042619801E-02
      0.00000000000000E+00   2.49803710174282E-10   0.00000000000000E+00   0.00000000000000E+00  -1.25591985130810E-09
      5.63467390181016E-34  -1.25591985130810E-09   5.56482132858157E-18   0.00000000000000E+00   0.00000000000000E+00
      0.00000000000000E+00   0.00000000000000E+00   0.00000000000000E+00   0.00000000000000E+00   0.00000000000000E+00
      3.95716707201972E-18   0.00000000000000E+00   0.00000000000000E+00   0.00000000000000E+00   0.00000000000000E+00
     -1.29027293266103E-17  -6.80399943371725E-34  -1.29027293266103E-17  -1.48569014503058E-17   4.56709056653029E-02
      4.56709054145245E-02   0.00000000000000E+00   0.00000000000000E+00   1.25591986421083E-09   1.16932553190709E-34
      1.25591986421083E-09   5.33491304970449E-18
      5.90628144375427E-02
      0.00000000000000E+00   2.52827412859205E-10   0.00000000000000E+00   0.00000000000000E+00  -1.27164053436488E-09
      5.35000708687363E-34  -1.27164053436488E-09   5.56315405678511E-18   0.00000000000000E+00   0.00000000000000E+00
      0.00000000000000E+00   0.00000000000000E+00   0.00000000000000E+00   0.00000000000000E+00   0.00000000000000E+00
      3.89124220581481E-18   0.00000000000000E+00   0.00000000000000E+00   0.00000000000000E+00   0.00000000000000E+00
     -1.69166619184064E-17  -6.36457271705514E-34  -1.69166619184064E-17  -1.48556846292523E-17   5.07940204162867E-02
      5.07940201624897E-02   0.00000000000000E+00   0.00000000000000E+00   1.27164055128154E-09   1.01456563018151E-34
      1.27164055128154E-09   5.40128836665236E-18
      6.55759215628244E-02
      0.00000000000000E+00   2.55871173459391E-10   0.00000000000000E+00   0.00000000000000E+00  -1.28756614737656E-09
      5.61853778689879E-34  -1.28756614737656E-09   5.56133185179325E-18   0.00000000000000E+00   0.00000000000000E+00
      0.00000000000000E+00   0.00000000000000E+00   0.00000000000000E+00   0.00000000000000E+00   0.00000000000000E+00
      3.81920600670731E-18   0.00000000000000E+00   0.00000000000000E+00   0.00000000000000E+00   0.00000000000000E+00
     -2.01414771022498E-19  -6.45747110547611E-34  -2.01414771022498E-19  -1.48544874831216E-17   5.63952925440290E-02
      5.63952922872016E-02   0.00000000000000E+00   0.00000000000000E+00   1.28756614757798E-09   8.38933318577316E-35
      1.28756614757798E-09   5.47394962462102E-18
      7.26534979722973E-02
      0.00000000000000E+00   2.59112199486609E-10   0.00000000000000E+00   0.00000000000000E+00  -1.30457547322591E-09
      5.25306059182952E-34  -1.30457547322591E-09   5.55935245907347E-18   0.00000000000000E+00   0.00000000000000E+00
      0.00000000000000E+00   0.00000000000000E+00   0.00000000000000E+00   0.00000000000000E+00   0.00000000000000E+00
      3.74097199493298E-18   0.00000000000000E+00   0.00000000000000E+00   0.00000000000000E+00   0.00000000000000E+00
      3.77761277203150E-19  -5.90496322013282E-34   3.77761277203149E-19  -1.48533347802778E-17   6.24820082561757E-02
      6.24820079961280E-02   0.00000000000000E+00   0.00000000000000E+00   1.30457547284815E-09   6.51902628303298E-35
      1.30457547284815E-09   5.55301032627145E-18
      8.03444643372578E-02
      0.00000000000000E+00   2.62657879383855E-10   0.00000000000000E+00   0.00000000000000E+00  -1.32320135534731E-09
      5.63073732840359E-34  -1.32320135534731E-09   5.55720231684962E-18   0.00000000000000E+00   0.00000000000000E+00
      0.00000000000000E+00   0.00000000000000E+00   0.00000000000000E+00   0.00000000000000E+00   0.00000000000000E+00
      3.65600666333553E-18   0.00000000000000E+00   0.00000000000000E+00   0.00000000000000E+00   0.00000000000000E+00
      2.78425782786470E-19  -6.13599472692078E-34   2.78425782786470E-19  -1.48522458663256E-17   6.90962393300417E-02
      6.90962390664776E-02   0.00000000000000E+00   0.00000000000000E+00   1.32320135506888E-09   5.05257398517183E-35
      1.32320135506888E-09   5.63903688614046E-18
      8.87019811205149E-02
      0.00000000000000E+00   2.66567943116156E-10   0.00000000000000E+00   0.00000000000000E+00  -1.34375247996584E-09
      5.57145409239355E-34  -1.34375247996584E-09   5.55486669275959E-18   0.00000000000000E+00   0.00000000000000E+00
      0.00000000000000E+00   0.00000000000000E+00   0.00000000000000E+00   0.00000000000000E+00   0.00000000000000E+00
      3.56373035300086E-18   0.00000000000000E+00   0.00000000000000E+00   0.00000000000000E+00   0.00000000000000E+00
      2.90993109286074E-20  -5.98480068827972E-34   2.90993109286068E-20  -1.48512426699603E-17   7.62837037636428E-02
      7.62837034962078E-02   0.00000000000000E+00   0.00000000000000E+00   1.34375247993674E-09   4.13346595886169E-35
      1.34375247993674E-09   5.73264562419987E-18
      9.77838160249876E-02
      0.00000000000000E+00   2.70873869044816E-10   0.00000000000000E+00   0.00000000000000E+00  -1.36639622127469E-09
      5.27215936321356E-34  -1.36639622127469E-09   5.55232958558211E-18   0.00000000000000E+00   0.00000000000000E+00
      0.00000000000000E+00   0.00000000000000E+00   0.00000000000000E+00   0.00000000000000E+00   0.00000000000000E+00
      3.46351329333981E-18   0.00000000000000E+00   0.00000000000000E+00   0.00000000000000E+00   0.00000000000000E+00
      2.65397057566261E-19  -5.59598202954802E-34   2.65397057566261E-19  -1.48503499140187E-17   8.40940817814893E-02
      8.40940815097948E-02   0.00000000000000E+00   0.00000000000000E+00   1.36639622100929E-09   3.23822666334458E-35
      1.36639622100929E-09   5.83450703509678E-18
      1.07652743287848E-01
      0.00000000000000E+00   2.75586809396730E-10   0.00000000000000E+00   0.00000000000000E+00  -1.39119954834962E-09
      5.43073087308814E-34  -1.39119954834962E-09   5.54957361518300E-18   0.00000000000000E+00   0.00000000000000E+00
      0.00000000000000E+00   0.00000000000000E+00   0.00000000000000E+00   0.00000000000000E+00   0.00000000000000E+00
      3.35467124897933E-18   0.00000000000000E+00   0.00000000000000E+00   0.00000000000000E+00   0.00000000000000E+00
     -4.33261243636947E-22  -5.65557975494557E-34  -4.33261243637513E-22  -1.48495952524100E-17   9.25813592275492E-02
      9.25813589511936E-02   0.00000000000000E+00   0.00000000000000E+00   1.39119954835005E-09   2.24848881857424E-35
      1.39119954835005E-09   5.94535038824769E-18
      1.17652743287848E-01
      0.00000000000000E+00   2.80383521089615E-10   0.00000000000000E+00   0.00000000000000E+00  -1.41647359061964E-09
      5.74773446481752E-34  -1.41647359061964E-09   5.54678203520849E-18   0.00000000000000E+00   0.00000000000000E+00
      0.00000000000000E+00   0.00000000000000E+00   0.00000000000000E+00   0.00000000000000E+00   0.00000000000000E+00
      3.24444173327322E-18   0.00000000000000E+00   0.00000000000000E+00   0.00000000000000E+00   0.00000000000000E+00
     -9.28346861781564E-20  -5.92261081290865E-34  -9.28346861781570E-20  -1.48490415432296E-17   1.01181359227549E-01
      1.01181358946456E-01   0.00000000000000E+00   0.00000000000000E+00   1.41647359071247E-09   1.74876348091134E-35
      1.41647359071247E-09   6.05781777474790E-18
      1.27652743287848E-01
      0.00000000000000E+00   2.85207836596350E-10   0.00000000000000E+00   0.00000000000000E+00  -1.44192577096214E-09
      5.50490028627613E-34  -1.44192577096214E-09   5.54399137032965E-18   0.00000000000000E+00   0.00000000000000E+00
      0.00000000000000E+00   0.00000000000000E+00   0.00000000000000E+00   0.00000000000000E+00   0.00000000000000E+00
      3.13426504983309E-18   0.00000000000000E+00   0.00000000000000E+00   0.00000000000000E+00   0.00000000000000E+00
      4.81923353096315E-20  -5.63453980633590E-34   4.81923353096309E-20  -1.48486833365516E-17   1.09781359227549E-01
      1.09781358941699E-01   0.00000000000000E+00   0.00000000000000E+00   1.44192577091395E-09   1.29639520059768E-35
      1.44192577091395E-09   6.17042691638884E-18
      1.37652743287848E-01
      0.00000000000000E+00   2.90069773495573E-10   0.00000000000000E+00   0.00000000000000E+00  -1.46760669080759E-09
      5.67310398486208E-34  -1.46760669080759E-09   5.54120154737914E-18   0.00000000000000E+00   0.00000000000000E+00
      0.00000000000000E+00   0.00000000000000E+00   0.00000000000000E+00   0.00000000000000E+00   0.00000000000000E+00
      3.02413626860781E-18   0.00000000000000E+00   0.00000000000000E+00   0.00000000000000E+00   0.00000000000000E+00
     -2.11045183063010E-19  -5.76186941008916E-34  -2.11045183063010E-19  -1.48485053848479E-17   1.18381359227549E-01
      1.18381358936910E-01   0.00000000000000E+00   0.00000000000000E+00   1.46760669101863E-09   8.87654252270759E-36
      1.46760669101863E-09   6.28316756886096E-18
      1.47652743287848E-01
      0.00000000000000E+00   2.94976157558108E-10   0.00000000000000E+00   0.00000000000000E+00  -1.49354999158415E-09
      5.50636764654687E-34  -1.49354999158415E-09   5.53841250411293E-18   0.00000000000000E+00   0.00000000000000E+00
      0.00000000000000E+00   0.00000000000000E+00   0.00000000000000E+00   0.00000000000000E+00   0.00000000000000E+00
      2.91405111755199E-18   0.00000000000000E+00   0.00000000000000E+00   0.00000000000000E+00   0.00000000000000E+00
      2.43061919660288E-19  -5.57507594271159E-34   2.43061919660287E-19  -1.48484939597004E-17   1.26981359227549E-01
      1.26981358932072E-01   0.00000000000000E+00   0.00000000000000E+00   1.49354999134109E-09   6.87082961647151E-36
      1.49354999134109E-09   6.39603033803542E-18
      1.57652743287848E-01
      0.00000000000000E+00   2.99930291943352E-10   0.00000000000000E+00   0.00000000000000E+00  -1.51977171256083E-09
      5.32643707415133E-34  -1.51977171256083E-09   5.53562418497648E-18   0.00000000000000E+00   0.00000000000000E+00
      0.00000000000000E+00   0.00000000000000E+00   0.00000000000000E+00   0.00000000000000E+00   0.00000000000000E+00
      2.80400584033796E-18   0.00000000000000E+00   0.00000000000000E+00   0.00000000000000E+00   0.00000000000000E+00
     -3.95776755610119E-21  -5.38189270782257E-34  -3.95776755610172E-21  -1.48486366149330E-17   1.35581359227549E-01
      1.35581358927181E-01   0.00000000000000E+00   0.00000000000000E+00   1.51977171256479E-09   5.54556336712455E-36
      1.51977171256479E-09   6.50900658961854E-18
      1.67652743287848E-01
      0.00000000000000E+00   3.04933226769894E-10   0.00000000000000E+00   0.00000000000000E+00  -1.54627666575168E-09
      5.39079865614495E-34  -1.54627666575168E-09   5.53283653922735E-18   0.00000000000000E+00   0.00000000000000E+00
      0.00000000000000E+00   0.00000000000000E+00   0.00000000000000E+00   0.00000000000000E+00   0.00000000000000E+00
      2.69399709342707E-18   0.00000000000000E+00   0.00000000000000E+00   0.00000000000000E+00   0.00000000000000E+00
     -3.47297112451458E-20  -5.43090546037168E-34  -3.47297112451464E-20  -1.48489220058041E-17   1.44181359227549E-01
      1.44181358922237E-01   0.00000000000000E+00   0.00000000000000E+00   1.54627666578641E-09   4.01068042267299E-36
      1.54627666578641E-09   6.62208837314962E-18
      1.77652743287848E-01
      0.00000000000000E+00   3.09984833617660E-10   0.00000000000000E+00   0.00000000000000E+00  -1.57306391315555E-09
      5.28318825819861E-34  -1.57306391315555E-09   5.53004952033244E-18   0.00000000000000E+00   0.00000000000000E+00
      0.00000000000000E+00   0.00000000000000E+00   0.00000000000000E+00   0.00000000000000E+00   0.00000000000000E+00
      2.58402188621834E-18   0.00000000000000E+00   0.00000000000000E+00   0.00000000000000E+00   0.00000000000000E+00
     -7.26191703359683E-20  -5.31313872881937E-34  -7.26191703359688E-20  -1.48493397642899E-17   1.52781359227549E-01
      1.52781358917245E-01   0.00000000000000E+00   0.00000000000000E+00   1.57306391322817E-09   2.99504706207579E-36
      1.57306391322817E-09   6.73526835773915E-18
      1.87652743287848E-01
      0.00000000000000E+00   3.15084510212752E-10   0.00000000000000E+00   0.00000000000000E+00  -1.60013050363321E-09