DF-ISE text

Info {
  version   = 1.0
  type      = xyplot
  datasets  = [
    "time"
    "source OuterVoltage" "source InnerVoltage" "source QuasiFermiPotential" "source DisplacementCurrent" "source eCurrent"
    "source hCurrent" "source TotalCurrent" "source Charge" "gate OuterVoltage" "gate InnerVoltage"
    "gate QuasiFermiPotential" "gate DisplacementCurrent" "gate eCurrent" "gate hCurrent" "gate TotalCurrent"
    "gate Charge" "substrate OuterVoltage" "substrate InnerVoltage" "substrate QuasiFermiPotential" "substrate DisplacementCurrent"
    "substrate eCurrent" "substrate hCurrent" "substrate TotalCurrent" "substrate Charge" "drain OuterVoltage"
    "drain InnerVoltage" "drain QuasiFermiPotential" "drain DisplacementCurrent" "drain eCurrent" "drain hCurrent"
    "drain TotalCurrent" "drain Charge" ]
  functions = [
    Time
    OuterVoltage InnerVoltage QuasiFermiPotential DisplacementCurrent eCurrent
    hCurrent TotalCurrent Charge OuterVoltage InnerVoltage
    QuasiFermiPotential DisplacementCurrent eCurrent hCurrent TotalCurrent
    Charge OuterVoltage InnerVoltage QuasiFermiPotential DisplacementCurrent
    eCurrent hCurrent TotalCurrent Charge OuterVoltage
    InnerVoltage QuasiFermiPotential DisplacementCurrent eCurrent hCurrent
    TotalCurrent Charge ]
}

Data {
      0.00000000000000E+00
      0.00000000000000E+00   0.00000000000000E+00   0.00000000000000E+00   0.00000000000000E+00  -1.16123316107029E-20
     -1.42487317271015E-34  -1.16123316107030E-20   5.74648490737604E-18   0.00000000000000E+00   0.00000000000000E+00
      0.00000000000000E+00   0.00000000000000E+00   0.00000000000000E+00   0.00000000000000E+00   0.00000000000000E+00
      5.23281230793810E-18   0.00000000000000E+00   0.00000000000000E+00   0.00000000000000E+00   0.00000000000000E+00
      1.66254685468852E-20   3.23595897091902E-34   1.66254685468855E-20  -1.57984051483997E-17   0.00000000000000E+00
      0.00000000000000E+00   0.00000000000000E+00   0.00000000000000E+00  -5.01313693618232E-21  -1.81108579820887E-34
     -5.01313693618250E-21   4.81910793308558E-18
      0.00000000000000E+00
      0.00000000000000E+00   0.00000000000000E+00   0.00000000000000E+00   0.00000000000000E+00   3.53227849043745E-20
     -1.51868538204087E-34   3.53227849043744E-20   5.74464487875355E-18   0.00000000000000E+00   0.00000000000000E+00
      0.00000000000000E+00   0.00000000000000E+00   0.00000000000000E+00   0.00000000000000E+00   0.00000000000000E+00
      5.22562953179170E-18   0.00000000000000E+00   0.00000000000000E+00   0.00000000000000E+00   0.00000000000000E+00
      5.25734490652653E-20   3.03989603439142E-34   5.25734490652656E-20  -1.57879095213803E-17   0.00000000000000E+00
      0.00000000000000E+00   0.00000000000000E+00   0.00000000000000E+00  -8.78962339696398E-20  -1.52121065235056E-34
     -8.78962339696400E-20   4.81763511083501E-18
      1.00000000000000E-03
      0.00000000000000E+00   1.03080741031273E-12   0.00000000000000E+00   0.00000000000000E+00  -5.10224717599278E-12
     -1.39917314001208E-34  -5.10224717599278E-12   5.74463160223511E-18   0.00000000000000E+00   0.00000000000000E+00
      0.00000000000000E+00   0.00000000000000E+00   0.00000000000000E+00   0.00000000000000E+00   0.00000000000000E+00
      5.22494402741390E-18   0.00000000000000E+00   0.00000000000000E+00   0.00000000000000E+00   0.00000000000000E+00
      2.79605978814780E-20   3.02836474806807E-34   2.79605978814783E-20  -1.57878826139805E-17   5.00000000000000E-05
      4.99999989649981E-05   0.00000000000000E+00   0.00000000000000E+00   5.10224714803218E-12  -1.62919160805599E-34
      5.10224714803218E-12   4.81830698433152E-18
      2.09333333333333E-03
      0.00000000000000E+00   2.15457079641020E-12   0.00000000000000E+00   0.00000000000000E+00  -1.06645396312465E-11
     -1.47478307165360E-34  -1.06645396312465E-11   5.74461708671368E-18   0.00000000000000E+00   0.00000000000000E+00
      0.00000000000000E+00   0.00000000000000E+00   0.00000000000000E+00   0.00000000000000E+00   0.00000000000000E+00
      5.22419455266875E-18   0.00000000000000E+00   0.00000000000000E+00   0.00000000000000E+00   0.00000000000000E+00
     -4.05041004532722E-19   3.39796574560108E-34  -4.05041004532722E-19  -1.57878532196530E-17   1.04666666666667E-04
      1.04666664503331E-04   0.00000000000000E+00   0.00000000000000E+00   1.06645400362875E-11  -1.92318267394748E-34
      1.06645400362875E-11   4.81904158027062E-18
      3.29600000000000E-03
      0.00000000000000E+00   3.38663981342697E-12   0.00000000000000E+00   0.00000000000000E+00  -1.67629305118948E-11
     -1.34384503912730E-34  -1.67629305118948E-11   5.74460111980799E-18   0.00000000000000E+00   0.00000000000000E+00
      0.00000000000000E+00   0.00000000000000E+00   0.00000000000000E+00   0.00000000000000E+00   0.00000000000000E+00
      5.22337014255220E-18   0.00000000000000E+00   0.00000000000000E+00   0.00000000000000E+00   0.00000000000000E+00
     -2.09515458294615E-20   2.93757218162309E-34  -2.09515458294613E-20  -1.57878209153444E-17   1.64800000000000E-04
      1.64799996599587E-04   0.00000000000000E+00   0.00000000000000E+00   1.67629305328464E-11  -1.59372714249579E-34
      1.67629305328464E-11   4.81984965298419E-18
      4.61893333333333E-03
      0.00000000000000E+00   4.73691383465988E-12   0.00000000000000E+00   0.00000000000000E+00  -2.34463716390552E-11
     -1.39279979662253E-34  -2.34463716390552E-11   5.74458355641517E-18   0.00000000000000E+00   0.00000000000000E+00
      0.00000000000000E+00   0.00000000000000E+00   0.00000000000000E+00   0.00000000000000E+00   0.00000000000000E+00
      5.22246330605337E-18   0.00000000000000E+00   0.00000000000000E+00   0.00000000000000E+00   0.00000000000000E+00
     -2.42391591086934E-19   3.15003347724147E-34  -2.42391591086934E-19  -1.57877854162115E-17   2.30946666666667E-04
      2.30946661910489E-04   0.00000000000000E+00   0.00000000000000E+00   2.34463718814468E-11  -1.75723368061894E-34
      2.34463718814468E-11   4.82073855374294E-18
      6.07416000000000E-03
      0.00000000000000E+00   6.21608739369820E-12   0.00000000000000E+00   0.00000000000000E+00  -3.07678016752300E-11
     -1.25990203515015E-34  -3.07678016752300E-11   5.74456423692942E-18   0.00000000000000E+00   0.00000000000000E+00
      0.00000000000000E+00   0.00000000000000E+00   0.00000000000000E+00   0.00000000000000E+00   0.00000000000000E+00
      5.22146580358576E-18   0.00000000000000E+00   0.00000000000000E+00   0.00000000000000E+00   0.00000000000000E+00
      1.02775226996789E-19   2.81315672424539E-34   1.02775226996790E-19  -1.57877464102100E-17   3.03708000000000E-04
      3.03707993758627E-04   0.00000000000000E+00   0.00000000000000E+00   3.07678015724548E-11  -1.55325468909524E-34
      3.07678015724548E-11   4.82171636969484E-18
      7.67490933333333E-03
      0.00000000000000E+00   7.83570148508761E-12   0.00000000000000E+00   0.00000000000000E+00  -3.87843197193024E-11
     -1.23007811708973E-34  -3.87843197193024E-11   5.74454298579327E-18   0.00000000000000E+00   0.00000000000000E+00
      0.00000000000000E+00   0.00000000000000E+00   0.00000000000000E+00   0.00000000000000E+00   0.00000000000000E+00
      5.22036857223834E-18   0.00000000000000E+00   0.00000000000000E+00   0.00000000000000E+00   0.00000000000000E+00
      2.29700317400585E-19   2.55743995872326E-34   2.29700317400585E-19  -1.57877035556404E-17   3.83745466666667E-04
      3.83745458799114E-04   0.00000000000000E+00   0.00000000000000E+00   3.87843194896021E-11  -1.32736184163352E-34
      3.87843194896021E-11   4.82279199760876E-18
      9.43573360000000E-03
      0.00000000000000E+00   9.60817335181255E-12   0.00000000000000E+00   0.00000000000000E+00  -4.75573554904667E-11
     -1.26561290693634E-34  -4.75573554904667E-11   5.74451960990419E-18   0.00000000000000E+00   0.00000000000000E+00
      0.00000000000000E+00   0.00000000000000E+00   0.00000000000000E+00   0.00000000000000E+00   0.00000000000000E+00
      5.21916164357374E-18   0.00000000000000E+00   0.00000000000000E+00   0.00000000000000E+00   0.00000000000000E+00
     -9.30497331794785E-20   2.90603205271275E-34  -9.30497331794782E-20  -1.57876564785026E-17   4.71786680000000E-04
      4.71786670352771E-04   0.00000000000000E+00   0.00000000000000E+00   4.75573555835164E-11  -1.64041914577640E-34
      4.75573555835164E-11   4.82397522502470E-18
      1.13726402933333E-02
      0.00000000000000E+00   1.15468163436178E-11   0.00000000000000E+00   0.00000000000000E+00  -5.71528149742566E-11
     -1.50817783390381E-34  -5.71528149742566E-11   5.74449389686251E-18   0.00000000000000E+00   0.00000000000000E+00
      0.00000000000000E+00   0.00000000000000E+00   0.00000000000000E+00   0.00000000000000E+00   0.00000000000000E+00
      5.21783405323382E-18   0.00000000000000E+00   0.00000000000000E+00   0.00000000000000E+00   0.00000000000000E+00
      9.49785746837943E-21   3.11119606184178E-34   9.49785746837974E-21  -1.57876047696546E-17   5.68632014666667E-04
      5.68632003072926E-04   0.00000000000000E+00   0.00000000000000E+00   5.71528149647587E-11  -1.60301822793797E-34
      5.71528149647587E-11   4.82527681955823E-18
      1.35032376560000E-02
      0.00000000000000E+00   1.36658705319208E-11   0.00000000000000E+00   0.00000000000000E+00  -6.76411833029196E-11
     -1.28330507822748E-34  -6.76411833029196E-11   5.74446561304425E-18   0.00000000000000E+00   0.00000000000000E+00
      0.00000000000000E+00   0.00000000000000E+00   0.00000000000000E+00   0.00000000000000E+00   0.00000000000000E+00
      5.21637374153734E-18   0.00000000000000E+00   0.00000000000000E+00   0.00000000000000E+00   0.00000000000000E+00
      3.99764326977633E-21   2.96654015467584E-34   3.99764326977663E-21  -1.57875479817636E-17   6.75161882800000E-04
      6.75161869078605E-04   0.00000000000000E+00   0.00000000000000E+00   6.76411832989220E-11  -1.68323507644836E-34
      6.76411832989220E-11   4.82670862718198E-18
      1.58468947549333E-02
      0.00000000000000E+00   1.59805391167347E-11   0.00000000000000E+00   0.00000000000000E+00  -7.90975789723090E-11
     -1.11638367340997E-34  -7.90975789723090E-11   5.74443450148189E-18   0.00000000000000E+00   0.00000000000000E+00
      0.00000000000000E+00   0.00000000000000E+00   0.00000000000000E+00   0.00000000000000E+00   0.00000000000000E+00
      5.21476744417603E-18   0.00000000000000E+00   0.00000000000000E+00   0.00000000000000E+00   0.00000000000000E+00
     -2.29347398860662E-19   3.02554176970083E-34  -2.29347398860661E-19  -1.57874856260496E-17   7.92344737746667E-04
      7.92344721701215E-04   0.00000000000000E+00   0.00000000000000E+00   7.90975792016564E-11  -1.90915809629085E-34
      7.90975792016564E-11   4.82828368039165E-18
      1.84249175637600E-02
      0.00000000000000E+00   1.85069255419832E-11   0.00000000000000E+00   0.00000000000000E+00  -9.16017360548208E-11
     -1.74401457879827E-34  -9.16017360548208E-11   5.74440027953400E-18   0.00000000000000E+00   0.00000000000000E+00
      0.00000000000000E+00   0.00000000000000E+00   0.00000000000000E+00   0.00000000000000E+00   0.00000000000000E+00
      5.21300057202680E-18   0.00000000000000E+00   0.00000000000000E+00   0.00000000000000E+00   0.00000000000000E+00
     -9.39830442779464E-20   3.61216171811610E-34  -9.39830442779460E-20  -1.57874171688174E-17   9.21245878188001E-04
      9.21245859605916E-04   0.00000000000000E+00   0.00000000000000E+00   9.16017361488038E-11  -1.86814713931784E-34
      9.16017361488038E-11   4.83001631725664E-18
      2.12607426534693E-02
      0.00000000000000E+00   2.12620541812522E-11   0.00000000000000E+00   0.00000000000000E+00  -1.05237892925419E-10
     -1.41718360220774E-34  -1.05237892925419E-10   5.74436263632246E-18   0.00000000000000E+00   0.00000000000000E+00
      0.00000000000000E+00   0.00000000000000E+00   0.00000000000000E+00   0.00000000000000E+00   0.00000000000000E+00
      5.21105707900067E-18   0.00000000000000E+00   0.00000000000000E+00   0.00000000000000E+00   0.00000000000000E+00
      3.02941967853429E-19   3.14910423456622E-34   3.02941967853429E-19  -1.57873420277803E-17   1.06303713267347E-03
      1.06303711132509E-03   0.00000000000000E+00   0.00000000000000E+00   1.05237892622477E-10  -1.73192063235848E-34
      1.05237892622477E-10   4.83192231245719E-18
      2.43801502521496E-02
      0.00000000000000E+00   2.42638413777379E-11   0.00000000000000E+00   0.00000000000000E+00  -1.20094570155083E-10
     -1.29692381164464E-34  -1.20094570155083E-10   5.74432122991439E-18   0.00000000000000E+00   0.00000000000000E+00
      0.00000000000000E+00   0.00000000000000E+00   0.00000000000000E+00   0.00000000000000E+00   0.00000000000000E+00
      5.20891931674280E-18   0.00000000000000E+00   0.00000000000000E+00   0.00000000000000E+00   0.00000000000000E+00
      3.56621783264644E-19   2.83708051573531E-34   3.56621783264645E-19  -1.57872595681807E-17   1.21900751260748E-03
      1.21900748824518E-03   0.00000000000000E+00   0.00000000000000E+00   1.20094569798462E-10  -1.54015670409067E-34
      1.20094569798462E-10   4.83401902152350E-18
      2.78114986106979E-02
      0.00000000000000E+00   2.75309572634252E-11   0.00000000000000E+00   0.00000000000000E+00  -1.36264204528124E-10
     -1.35720960774750E-34  -1.36264204528124E-10   5.74427568422339E-18   0.00000000000000E+00   0.00000000000000E+00
      0.00000000000000E+00   0.00000000000000E+00   0.00000000000000E+00   0.00000000000000E+00   0.00000000000000E+00
      5.20656787488225E-18   0.00000000000000E+00   0.00000000000000E+00   0.00000000000000E+00   0.00000000000000E+00
     -2.29631307557092E-18   2.81598782125346E-34  -2.29631307557092E-18  -1.57871690987221E-17   1.39057493053490E-03
      1.39057490289226E-03   0.00000000000000E+00   0.00000000000000E+00   1.36264206824437E-10  -1.45877821350595E-34
      1.36264206824437E-10   4.83632553961641E-18
      3.15859818051010E-02
      0.00000000000000E+00   3.10827835601552E-11   0.00000000000000E+00   0.00000000000000E+00  -1.53842608105375E-10
     -1.47977265732387E-34  -1.53842608105375E-10   5.74422558560224E-18   0.00000000000000E+00   0.00000000000000E+00
      0.00000000000000E+00   0.00000000000000E+00   0.00000000000000E+00   0.00000000000000E+00   0.00000000000000E+00
      5.20398140540129E-18   0.00000000000000E+00   0.00000000000000E+00   0.00000000000000E+00   0.00000000000000E+00
      9.62593701273917E-19   2.89040836502843E-34   9.62593701273917E-19  -1.57870698673309E-17   1.57929909025505E-03
      1.57929905904624E-03   0.00000000000000E+00   0.00000000000000E+00   1.53842607142782E-10  -1.41063570770456E-34
      1.53842607142782E-10   4.83886287632741E-18
      3.57379133189445E-02
      0.00000000000000E+00   3.49392406467411E-11   0.00000000000000E+00   0.00000000000000E+00  -1.72928216452597E-10
     -1.40913671109397E-34  -1.72928216452597E-10   5.74417047909646E-18   0.00000000000000E+00   0.00000000000000E+00
      0.00000000000000E+00   0.00000000000000E+00   0.00000000000000E+00   0.00000000000000E+00   0.00000000000000E+00
      5.20113642955492E-18   0.00000000000000E+00   0.00000000000000E+00   0.00000000000000E+00   0.00000000000000E+00
      1.97303674510299E-18   2.82662563122354E-34   1.97303674510299E-18  -1.57869610567798E-17   1.78689566594722E-03
      1.78689563086638E-03   0.00000000000000E+00   0.00000000000000E+00   1.72928214479561E-10  -1.41748892012957E-34
      1.72928214479561E-10   4.84165414812848E-18
      4.03050379841723E-02
      0.00000000000000E+00   3.91205583608405E-11   0.00000000000000E+00   0.00000000000000E+00  -1.93621083885887E-10
     -1.60648159992137E-34  -1.93621083885887E-10   5.74410986432507E-18   0.00000000000000E+00   0.00000000000000E+00
      0.00000000000000E+00   0.00000000000000E+00   0.00000000000000E+00   0.00000000000000E+00   0.00000000000000E+00
      5.19800712561723E-18   0.00000000000000E+00   0.00000000000000E+00   0.00000000000000E+00   0.00000000000000E+00
      2.51368334170274E-18   3.02836708266044E-34   2.51368334170274E-18  -1.57868417802123E-17   2.01525189920861E-03
      2.01525185992959E-03   0.00000000000000E+00   0.00000000000000E+00   1.93621081372203E-10  -1.42188548273907E-34
      1.93621081372203E-10   4.84472479026999E-18
      4.53288751159228E-02
      0.00000000000000E+00   4.36470567299880E-11   0.00000000000000E+00   0.00000000000000E+00  -2.16021584339026E-10
     -1.60609916677614E-34  -2.16021584339026E-10   5.74404319095168E-18   0.00000000000000E+00   0.00000000000000E+00
      0.00000000000000E+00   0.00000000000000E+00   0.00000000000000E+00   0.00000000000000E+00   0.00000000000000E+00
      5.19456509556241E-18   0.00000000000000E+00   0.00000000000000E+00   0.00000000000000E+00   0.00000000000000E+00
      2.25199011786135E-18   3.04841265515526E-34   2.25199011786135E-18  -1.57867110766256E-17   2.26644375579614E-03
      2.26644371197237E-03   0.00000000000000E+00   0.00000000000000E+00   2.16021582087036E-10  -1.44231348837912E-34
      2.16021582087036E-10   4.84810279011148E-18
      5.08550959608485E-02
      0.00000000000000E+00   4.85387810749367E-11   0.00000000000000E+00   0.00000000000000E+00  -2.40228758775932E-10
     -1.24203100330197E-34  -2.40228758775932E-10   5.74396985370541E-18   0.00000000000000E+00   0.00000000000000E+00
      0.00000000000000E+00   0.00000000000000E+00   0.00000000000000E+00   0.00000000000000E+00   0.00000000000000E+00
      5.19077910860436E-18   0.00000000000000E+00   0.00000000000000E+00   0.00000000000000E+00   0.00000000000000E+00
      5.68827627541258E-18   2.49900111259124E-34   5.68827627541258E-18  -1.57865679063864E-17   2.54275479804242E-03
      2.54275474930724E-03   0.00000000000000E+00   0.00000000000000E+00   2.40228753087656E-10  -1.25697010928927E-34
      2.40228753087656E-10   4.85181894407662E-18
      5.69339388902666E-02
      0.00000000000000E+00   5.38150932592059E-11   0.00000000000000E+00   0.00000000000000E+00  -2.66338268936184E-10
     -9.41535334115692E-35  -2.66338268936184E-10   5.74388918690677E-18   0.00000000000000E+00   0.00000000000000E+00
      0.00000000000000E+00   0.00000000000000E+00   0.00000000000000E+00   0.00000000000000E+00   0.00000000000000E+00
      5.18661481931460E-18   0.00000000000000E+00   0.00000000000000E+00   0.00000000000000E+00   0.00000000000000E+00
      8.57005038242176E-18   2.40432774005846E-34   8.57005038242176E-18  -1.57864111468707E-17   2.84669694451333E-03
      2.84669689048062E-03   0.00000000000000E+00   0.00000000000000E+00   2.66338260366134E-10  -1.46279240594277E-34
      2.66338260366134E-10   4.85590714064941E-18
      6.36206661126266E-02
      0.00000000000000E+00   5.94942041910948E-11   0.00000000000000E+00   0.00000000000000E+00  -2.94439896348831E-10
     -1.41140555935411E-34  -2.94439896348831E-10   5.74380045845001E-18   0.00000000000000E+00   0.00000000000000E+00
      0.00000000000000E+00   0.00000000000000E+00   0.00000000000000E+00   0.00000000000000E+00   0.00000000000000E+00
      5.18203445781660E-18   0.00000000000000E+00   0.00000000000000E+00   0.00000000000000E+00   0.00000000000000E+00
      8.56781950038584E-18   3.07451639641509E-34   8.56781950038584E-18  -1.57862395883508E-17   3.18103330563133E-03
      3.18103324589670E-03   0.00000000000000E+00   0.00000000000000E+00   2.94439887781012E-10  -1.66311083706098E-34
      2.94439887781012E-10   4.86040467208418E-18
      7.09760660572226E-02
      0.00000000000000E+00   6.55925135344904E-11   0.00000000000000E+00   0.00000000000000E+00  -3.24614539779997E-10
     -9.55640770137403E-35  -3.24614539779997E-10   5.74370286318791E-18   0.00000000000000E+00   0.00000000000000E+00
      0.00000000000000E+00   0.00000000000000E+00   0.00000000000000E+00   0.00000000000000E+00   0.00000000000000E+00
      5.17699648931537E-18   0.00000000000000E+00   0.00000000000000E+00   0.00000000000000E+00   0.00000000000000E+00
      1.92308426681395E-17   2.55483887840767E-34   1.92308426681395E-17  -1.57860519302837E-17   3.54880330286113E-03
      3.54880323700373E-03   0.00000000000000E+00   0.00000000000000E+00   3.24614520549155E-10  -1.59919810827027E-34
      3.24614520549155E-10   4.86535257778041E-18
      7.90670059962782E-02
      0.00000000000000E+00   7.21239254242037E-11   0.00000000000000E+00   0.00000000000000E+00  -3.56930664202490E-10
     -1.36590537522308E-34  -3.56930664202490E-10   5.74359551565991E-18   0.00000000000000E+00   0.00000000000000E+00
      0.00000000000000E+00   0.00000000000000E+00   0.00000000000000E+00   0.00000000000000E+00   0.00000000000000E+00
      5.17145523994579E-18   0.00000000000000E+00   0.00000000000000E+00   0.00000000000000E+00   0.00000000000000E+00
      2.82594041053295E-17   2.75822202772503E-34   2.82594041053295E-17  -1.57858467781853E-17   3.95335029981391E-03
      3.95335022739894E-03   0.00000000000000E+00   0.00000000000000E+00   3.56930635943086E-10  -1.39231665250195E-34
      3.56930635943086E-10   4.87079602257959E-18
      8.79670399292394E-02
      0.00000000000000E+00   7.90989978678633E-11   0.00000000000000E+00   0.00000000000000E+00  -3.91440176781936E-10
     -1.63791881387132E-34  -3.91440176781936E-10   5.74347744209910E-18   0.00000000000000E+00   0.00000000000000E+00
      0.00000000000000E+00   0.00000000000000E+00   0.00000000000000E+00   0.00000000000000E+00   0.00000000000000E+00
      5.16536048563444E-18   0.00000000000000E+00   0.00000000000000E+00   0.00000000000000E+00   0.00000000000000E+00
      4.21169701758102E-17   2.89373886939353E-34   4.21169701758102E-17  -1.57856226413195E-17   4.39835199646197E-03
      4.39835191704402E-03   0.00000000000000E+00   0.00000000000000E+00   3.91440134664966E-10  -1.25582005552220E-34
      3.91440134664966E-10   4.87678471358592E-18
      9.77570772554967E-02
      0.00000000000000E+00   8.65238670868308E-11   0.00000000000000E+00   0.00000000000000E+00  -4.28172985477302E-10
     -1.01110036925931E-34  -4.28172985477302E-10   5.74334757164926E-18   0.00000000000000E+00   0.00000000000000E+00
      0.00000000000000E+00   0.00000000000000E+00   0.00000000000000E+00   0.00000000000000E+00   0.00000000000000E+00
      5.15865700065270E-18   0.00000000000000E+00   0.00000000000000E+00   0.00000000000000E+00   0.00000000000000E+00
      6.01013516056435E-17   2.59598878492313E-34   6.01013516056435E-17  -1.57853779318554E-17   4.88785386277484E-03
      4.88785377590244E-03   0.00000000000000E+00   0.00000000000000E+00   4.28172925375950E-10  -1.58488841566382E-34
      4.28172925375950E-10   4.88337335955340E-18
      1.07757077255497E-01
      0.00000000000000E+00   9.38470443233880E-11   0.00000000000000E+00   0.00000000000000E+00  -4.64400520303704E-10
     -1.59457237018297E-34  -4.64400520303704E-10   5.74321492714110E-18   0.00000000000000E+00   0.00000000000000E+00
      0.00000000000000E+00   0.00000000000000E+00   0.00000000000000E+00   0.00000000000000E+00   0.00000000000000E+00
      5.15181054764363E-18   0.00000000000000E+00   0.00000000000000E+00   0.00000000000000E+00   0.00000000000000E+00
      6.96883128029986E-17   2.89162741106853E-34   6.96883128029986E-17  -1.57851299524147E-17   5.38785386277483E-03
      5.38785376855015E-03   0.00000000000000E+00   0.00000000000000E+00   4.64400450615391E-10  -1.29705504088556E-34
      4.64400450615391E-10   4.89010447763002E-18
      1.17757077255497E-01
      0.00000000000000E+00   1.00913761266180E-10   0.00000000000000E+00   0.00000000000000E+00  -4.99357224269396E-10
     -1.57319961288739E-34  -4.99357224269396E-10   5.74308229386146E-18   0.00000000000000E+00   0.00000000000000E+00
      0.00000000000000E+00   0.00000000000000E+00   0.00000000000000E+00   0.00000000000000E+00   0.00000000000000E+00
      5.14496489493918E-18   0.00000000000000E+00   0.00000000000000E+00   0.00000000000000E+00   0.00000000000000E+00
      6.96327499373510E-17   2.58239086356961E-34   6.96327499373510E-17  -1.57848839588259E-17   5.88785386277483E-03
      5.88785376145539E-03   0.00000000000000E+00   0.00000000000000E+00   4.99357154636646E-10  -1.00919125068222E-34
      4.99357154636646E-10   4.89683677002519E-18
      1.27757077255497E-01
      0.00000000000000E+00   1.07731267857434E-10   0.00000000000000E+00   0.00000000000000E+00  -5.33079057600222E-10
     -1.46860540842621E-34  -5.33079057600222E-10   5.74294967170265E-18   0.00000000000000E+00   0.00000000000000E+00
      0.00000000000000E+00   0.00000000000000E+00   0.00000000000000E+00   0.00000000000000E+00   0.00000000000000E+00
      5.13812003572373E-18   0.00000000000000E+00   0.00000000000000E+00   0.00000000000000E+00   0.00000000000000E+00
      6.88711204868818E-17   2.88117558423546E-34   6.88711204868818E-17  -1.57846399378099E-17   6.38785386277483E-03
      6.38785375461089E-03   0.00000000000000E+00   0.00000000000000E+00   5.33078988729101E-10  -1.41257017580926E-34
      5.33078988729101E-10   4.90357023038351E-18
      1.37757077255497E-01
      0.00000000000000E+00   1.14306704818612E-10   0.00000000000000E+00   0.00000000000000E+00  -5.65601583973759E-10
     -1.39131805999292E-34  -5.65601583973759E-10   5.74281706055750E-18   0.00000000000000E+00   0.00000000000000E+00
      0.00000000000000E+00   0.00000000000000E+00   0.00000000000000E+00   0.00000000000000E+00   0.00000000000000E+00
      5.13127596329218E-18   0.00000000000000E+00   0.00000000000000E+00   0.00000000000000E+00   0.00000000000000E+00
      6.77348789366366E-17   2.95607939007991E-34   6.77348789366366E-17  -1.57843978762551E-17   6.88785386277483E-03
      6.88785374800947E-03   0.00000000000000E+00   0.00000000000000E+00   5.65601516238880E-10  -1.56476133008698E-34
      5.65601516238880E-10   4.91030485240543E-18
      1.47757077255497E-01
      0.00000000000000E+00   1.20647164880231E-10   0.00000000000000E+00   0.00000000000000E+00  -5.96960073852703E-10
     -1.44042869319652E-34  -5.96960073852703E-10   5.74268446031817E-18   0.00000000000000E+00   0.00000000000000E+00
      0.00000000000000E+00   0.00000000000000E+00   0.00000000000000E+00   0.00000000000000E+00   0.00000000000000E+00
      5.12443267093996E-18   0.00000000000000E+00   0.00000000000000E+00   0.00000000000000E+00   0.00000000000000E+00
      1.01119457099570E-16   2.92554887709328E-34   1.01119457099570E-16  -1.57841577610661E-17   7.38785386277483E-03
      7.38785374164398E-03   0.00000000000000E+00   0.00000000000000E+00   5.96959972733246E-10  -1.48512018389676E-34
      5.96959972733246E-10   4.91704062980792E-18
      1.57757077255497E-01
      0.00000000000000E+00   1.26759658857229E-10   0.00000000000000E+00   0.00000000000000E+00  -6.27189224344615E-10
     -1.19998182240608E-34  -6.27189224344615E-10   5.74255187087648E-18   0.00000000000000E+00   0.00000000000000E+00
      0.00000000000000E+00   0.00000000000000E+00   0.00000000000000E+00   0.00000000000000E+00   0.00000000000000E+00
      5.11759015199113E-18   0.00000000000000E+00   0.00000000000000E+00   0.00000000000000E+00   0.00000000000000E+00
      6.58087933436566E-17   2.51464027846034E-34   6.58087933436566E-17  -1.57839195792085E-17   7.88785386277484E-03
      7.88785373550740E-03   0.00000000000000E+00   0.00000000000000E+00   6.27189158535822E-10  -1.31465845605426E-34
      6.27189158535822E-10   4.92377755634089E-18
      1.67757077255497E-01
      0.00000000000000E+00   1.32651049454567E-10   0.00000000000000E+00   0.00000000000000E+00  -6.56323267817218E-10
     -8.08213193076606E-35  -6.56323267817218E-10   5.74241929212527E-18   0.00000000000000E+00   0.00000000000000E+00
      0.00000000000000E+00   0.00000000000000E+00   0.00000000000000E+00   0.00000000000000E+00   0.00000000000000E+00
      5.11074839988089E-18   0.00000000000000E+00   0.00000000000000E+00   0.00000000000000E+00   0.00000000000000E+00
      2.88866544046012E-17   2.05599499128404E-34   2.88866544046012E-17  -1.57836833178130E-17   8.38785386277484E-03
      8.38785372959284E-03   0.00000000000000E+00   0.00000000000000E+00   6.56323238930564E-10  -1.24778179820744E-34
      6.56323238930564E-10   4.93051562580680E-18
      1.77757077255497E-01
      0.00000000000000E+00   1.38328076090122E-10   0.00000000000000E+00   0.00000000000000E+00  -6.84395683383888E-10
     -1.68958829423422E-34  -6.84395683383888E-10   5.74228672395775E-18   0.00000000000000E+00   0.00000000000000E+00
      0.00000000000000E+00   0.00000000000000E+00   0.00000000000000E+00   0.00000000000000E+00   0.00000000000000E+00
      5.10390740810572E-18   0.00000000000000E+00   0.00000000000000E+00   0.00000000000000E+00   0.00000000000000E+00
      5.17922879962704E-17   2.81555485115021E-34   5.17922879962704E-17  -1.57834489641122E-17   8.88785386277484E-03
      8.88785372389352E-03   0.00000000000000E+00   0.00000000000000E+00   6.84395631591601E-10  -1.12596655691599E-34
      6.84395631591601E-10   4.93725483204867E-18
      1.87757077255497E-01
      0.00000000000000E+00   1.43797367306146E-10   0.00000000000000E+00   0.00000000000000E+00  -7.11439366337768E-10
     -1.46527923478459E-34  -7.11439366337768E-10   5.74215416626735E-18   0.00000000000000E+00   0.00000000000000E+00
      0.00000000000000E+00   0.00000000000000E+00   0.00000000000000E+00   0.00000000000000E+00   0.00000000000000E+00
      5.09706717020805E-18   0.00000000000000E+00   0.00000000000000E+00   0.00000000000000E+00   0.00000000000000E+00
      6.30134399439173E-17   2.67379037856083E-34   6.30134399439173E-17  -1.57832165054214E-17   9.38785386277484E-03
      9.38785371840278E-03   0.00000000000000E+00   0.00000000000000E+00   7.11439303324328E-10  -1.20851114377623E-34
      7.11439303324328E-10   4.94399516894596E-18
      1.97757077255497E-01
      0.00000000000000E+00   1.49065410154346E-10   0.00000000000000E+00   0.00000000000000E+00  -7.37486541909363E-10