DF-ISE text

Info {
  version   = 1.0
  type      = xyplot
  datasets  = [
    "time"
    "source OuterVoltage" "source InnerVoltage" "source QuasiFermiPotential" "source DisplacementCurrent" "source eCurrent"
    "source hCurrent" "source TotalCurrent" "source Charge" "gate OuterVoltage" "gate InnerVoltage"
    "gate QuasiFermiPotential" "gate DisplacementCurrent" "gate eCurrent" "gate hCurrent" "gate TotalCurrent"
    "gate Charge" "substrate OuterVoltage" "substrate InnerVoltage" "substrate QuasiFermiPotential" "substrate DisplacementCurrent"
    "substrate eCurrent" "substrate hCurrent" "substrate TotalCurrent" "substrate Charge" "drain OuterVoltage"
    "drain InnerVoltage" "drain QuasiFermiPotential" "drain DisplacementCurrent" "drain eCurrent" "drain hCurrent"
    "drain TotalCurrent" "drain Charge" ]
  functions = [
    Time
    OuterVoltage InnerVoltage QuasiFermiPotential DisplacementCurrent eCurrent
    hCurrent TotalCurrent Charge OuterVoltage InnerVoltage
    QuasiFermiPotential DisplacementCurrent eCurrent hCurrent TotalCurrent
    Charge OuterVoltage InnerVoltage QuasiFermiPotential DisplacementCurrent
    eCurrent hCurrent TotalCurrent Charge OuterVoltage
    InnerVoltage QuasiFermiPotential DisplacementCurrent eCurrent hCurrent
    TotalCurrent Charge ]
}

Data {
      0.00000000000000E+00
      0.00000000000000E+00   0.00000000000000E+00   0.00000000000000E+00   0.00000000000000E+00  -4.55339701547001E-21
      5.64384354090308E-34  -4.55339701546945E-21   5.25905418307924E-18   0.00000000000000E+00   0.00000000000000E+00
      0.00000000000000E+00   0.00000000000000E+00   0.00000000000000E+00   0.00000000000000E+00   0.00000000000000E+00
      2.01977876751276E-18   0.00000000000000E+00   0.00000000000000E+00   0.00000000000000E+00   0.00000000000000E+00
      1.53216976651791E-20  -1.06436175306829E-33   1.53216976651780E-20  -1.22086685246138E-17   0.00000000000000E+00
      0.00000000000000E+00   0.00000000000000E+00   0.00000000000000E+00  -1.07683006497091E-20   4.99977398977981E-34
     -1.07683006497086E-20   4.92983557402177E-18
      0.00000000000000E+00
      0.00000000000000E+00   0.00000000000000E+00   0.00000000000000E+00   0.00000000000000E+00  -8.55516711799037E-20
      5.43645840882215E-34  -8.55516711799031E-20   5.25709202409276E-18   0.00000000000000E+00   0.00000000000000E+00
      0.00000000000000E+00   0.00000000000000E+00   0.00000000000000E+00   0.00000000000000E+00   0.00000000000000E+00
      2.01455488123144E-18   0.00000000000000E+00   0.00000000000000E+00   0.00000000000000E+00   0.00000000000000E+00
     -1.46347760482418E-19  -1.04058603155848E-33  -1.46347760482419E-19  -1.21998389737320E-17   0.00000000000000E+00
      0.00000000000000E+00   0.00000000000000E+00   0.00000000000000E+00   2.31899431662322E-19   4.96940190676268E-34
      2.31899431662323E-19   4.92819206840781E-18
      1.00000000000000E-03
      0.00000000000000E+00   2.82575614382314E-12   0.00000000000000E+00   0.00000000000000E+00  -1.47495487784681E-11
      5.56933766839906E-34  -1.47495487784681E-11   5.25705762939951E-18   0.00000000000000E+00   0.00000000000000E+00
      0.00000000000000E+00   0.00000000000000E+00   0.00000000000000E+00   0.00000000000000E+00   0.00000000000000E+00
      2.01387393579722E-18   0.00000000000000E+00   0.00000000000000E+00   0.00000000000000E+00   0.00000000000000E+00
     -4.07108665179172E-19  -1.07353089238645E-33  -4.07108665179173E-19  -1.21997995247700E-17   5.00000000000000E-05
      4.99999971621287E-05   0.00000000000000E+00   0.00000000000000E+00   1.47495491855768E-11   5.16597125546548E-34
      1.47495491855768E-11   4.92886795957325E-18
      2.09333333333333E-03
      0.00000000000000E+00   5.90534431937349E-12   0.00000000000000E+00   0.00000000000000E+00  -3.08240489042132E-11
      5.47316457280605E-34  -3.08240489042132E-11   5.25702002501853E-18   0.00000000000000E+00   0.00000000000000E+00
      0.00000000000000E+00   0.00000000000000E+00   0.00000000000000E+00   0.00000000000000E+00   0.00000000000000E+00
      2.01312944502353E-18   0.00000000000000E+00   0.00000000000000E+00   0.00000000000000E+00   0.00000000000000E+00
      1.65388649876962E-19  -1.06456566845410E-33   1.65388649876961E-19  -1.21997564200108E-17   1.04666666666667E-04
      1.04666660736011E-04   0.00000000000000E+00   0.00000000000000E+00   3.08240487388245E-11   5.17249211173494E-34
      3.08240487388245E-11   4.92960694996871E-18
      3.29600000000000E-03
      0.00000000000000E+00   9.28041570858200E-12   0.00000000000000E+00   0.00000000000000E+00  -4.84409043951312E-11
      5.58962929652885E-34  -4.84409043951312E-11   5.25697866078567E-18   0.00000000000000E+00   0.00000000000000E+00
      0.00000000000000E+00   0.00000000000000E+00   0.00000000000000E+00   0.00000000000000E+00   0.00000000000000E+00
      2.01231051670694E-18   0.00000000000000E+00   0.00000000000000E+00   0.00000000000000E+00   0.00000000000000E+00
     -1.24918520029095E-20  -1.07779762670973E-33  -1.24918520029106E-20  -1.21997090362524E-17   1.64800000000000E-04
      1.64799990679806E-04   0.00000000000000E+00   0.00000000000000E+00   4.84409044076231E-11   5.18834697056841E-34
      4.84409044076231E-11   4.93041985875973E-18
      4.61893333333333E-03
      0.00000000000000E+00   1.29775475774836E-11   0.00000000000000E+00   0.00000000000000E+00  -6.77387927400054E-11
      5.29089055590353E-34  -6.77387927400054E-11   5.25693316084064E-18   0.00000000000000E+00   0.00000000000000E+00
      0.00000000000000E+00   0.00000000000000E+00   0.00000000000000E+00   0.00000000000000E+00   0.00000000000000E+00
      2.01140970950326E-18   0.00000000000000E+00   0.00000000000000E+00   0.00000000000000E+00   0.00000000000000E+00
      2.59174246555381E-20  -1.03712424926553E-33   2.59174246555371E-20  -1.21996569521786E-17   2.30946666666667E-04
      2.30946653633503E-04   0.00000000000000E+00   0.00000000000000E+00   6.77387927140880E-11   5.08035193675179E-34
      6.77387927140880E-11   4.93131408183466E-18
      6.07416000000000E-03
      0.00000000000000E+00   1.70254084886517E-11   0.00000000000000E+00   0.00000000000000E+00  -8.88672722922264E-11
      5.52259576590332E-34  -8.88672722922264E-11   5.25688311176292E-18   0.00000000000000E+00   0.00000000000000E+00
      0.00000000000000E+00   0.00000000000000E+00   0.00000000000000E+00   0.00000000000000E+00   0.00000000000000E+00
      2.01041883843588E-18   0.00000000000000E+00   0.00000000000000E+00   0.00000000000000E+00   0.00000000000000E+00
      2.10173274736789E-19  -1.05487133826812E-33   2.10173274736788E-19  -1.21995997057158E-17   3.03708000000000E-04
      3.03707982901651E-04   0.00000000000000E+00   0.00000000000000E+00   8.88672720820531E-11   5.02611761677793E-34
      8.88672720820531E-11   4.93229775551696E-18
      7.67490933333333E-03
      0.00000000000000E+00   2.14547778080447E-11   0.00000000000000E+00   0.00000000000000E+00  -1.11987109148782E-10
      5.46403570165606E-34  -1.11987109148782E-10   5.25682805882134E-18   0.00000000000000E+00   0.00000000000000E+00
      0.00000000000000E+00   0.00000000000000E+00   0.00000000000000E+00   0.00000000000000E+00   0.00000000000000E+00
      2.00932890063696E-18   0.00000000000000E+00   0.00000000000000E+00   0.00000000000000E+00   0.00000000000000E+00
      1.26363641264991E-19  -1.05086249444735E-33   1.26363641264990E-19  -1.21995367902431E-17   3.83745466666667E-04
      3.83745445119989E-04   0.00000000000000E+00   0.00000000000000E+00   1.11987109022419E-10   5.04458924281750E-34
      1.11987109022419E-10   4.93337983078486E-18
      9.43573360000000E-03
      0.00000000000000E+00   2.62986830657195E-11   0.00000000000000E+00   0.00000000000000E+00  -1.37270568122839E-10
      5.46156381632408E-34  -1.37270568122839E-10   5.25676750184950E-18   0.00000000000000E+00   0.00000000000000E+00
      0.00000000000000E+00   0.00000000000000E+00   0.00000000000000E+00   0.00000000000000E+00   0.00000000000000E+00
      2.00812999368322E-18   0.00000000000000E+00   0.00000000000000E+00   0.00000000000000E+00   0.00000000000000E+00
      7.02427388754608E-20  -1.07680079646779E-33   7.02427388754598E-20  -1.21994676504821E-17   4.71786680000000E-04
      4.71786653588694E-04   0.00000000000000E+00   0.00000000000000E+00   1.37270568052596E-10   5.30644414835383E-34
      1.37270568052596E-10   4.93457015494932E-18
      1.13726402933333E-02
      0.00000000000000E+00   3.15923853256962E-11   0.00000000000000E+00   0.00000000000000E+00  -1.64901601301901E-10
      5.76060635949718E-34  -1.64901601301901E-10   5.25670089071030E-18   0.00000000000000E+00   0.00000000000000E+00
      0.00000000000000E+00   0.00000000000000E+00   0.00000000000000E+00   0.00000000000000E+00   0.00000000000000E+00
      2.00681122579214E-18   0.00000000000000E+00   0.00000000000000E+00   0.00000000000000E+00   0.00000000000000E+00
      3.00969373795834E-19  -1.06071971350975E-33   3.00969373795833E-19  -1.21993916780466E-17   5.68632014666667E-04
      5.68631982939039E-04   0.00000000000000E+00   0.00000000000000E+00   1.64901601000931E-10   4.84659077560032E-34
      1.64901601000931E-10   4.93587956154414E-18
      1.35032376560000E-02
      0.00000000000000E+00   3.73733515512586E-11   0.00000000000000E+00   0.00000000000000E+00  -1.95075882268860E-10
      5.41276025206572E-34  -1.95075882268860E-10   5.25662762030829E-18   0.00000000000000E+00   0.00000000000000E+00
      0.00000000000000E+00   0.00000000000000E+00   0.00000000000000E+00   0.00000000000000E+00   0.00000000000000E+00
      2.00536061706844E-18   0.00000000000000E+00   0.00000000000000E+00   0.00000000000000E+00   0.00000000000000E+00
      4.08696341505426E-19  -1.03752213103959E-33   4.08696341505425E-19  -1.21993082066350E-17   6.75161882800000E-04
      6.75161845266690E-04   0.00000000000000E+00   0.00000000000000E+00   1.95075881860164E-10   4.96246105833021E-34
      1.95075881860164E-10   4.93731996925829E-18
      1.58468947549333E-02
      0.00000000000000E+00   4.36813277556295E-11   0.00000000000000E+00   0.00000000000000E+00  -2.28000642929311E-10
      5.60974580775977E-34  -2.28000642929311E-10   5.25654702510542E-18   0.00000000000000E+00   0.00000000000000E+00
      0.00000000000000E+00   0.00000000000000E+00   0.00000000000000E+00   0.00000000000000E+00   0.00000000000000E+00
      2.00376499091235E-18   0.00000000000000E+00   0.00000000000000E+00   0.00000000000000E+00   0.00000000000000E+00
      4.95107299691859E-19  -1.05148347750434E-33   4.95107299691858E-19  -1.21992165068431E-17   7.92344737746667E-04
      7.92344693878441E-04   0.00000000000000E+00   0.00000000000000E+00   2.28000642434203E-10   4.90508896728368E-34
      2.28000642434203E-10   4.93890449082537E-18
      1.84249175637600E-02
      0.00000000000000E+00   5.05581423079319E-11   0.00000000000000E+00   0.00000000000000E+00  -2.63894246799568E-10
      5.18933093298879E-34  -2.63894246799568E-10   5.25645837309056E-18   0.00000000000000E+00   0.00000000000000E+00
      0.00000000000000E+00   0.00000000000000E+00   0.00000000000000E+00   0.00000000000000E+00   0.00000000000000E+00
      2.00200985461373E-18   0.00000000000000E+00   0.00000000000000E+00   0.00000000000000E+00   0.00000000000000E+00
      2.71126152701984E-19  -1.01042836993989E-33   2.71126152701983E-19  -1.21991157805834E-17   9.21245878188001E-04
      9.21245827413607E-04   0.00000000000000E+00   0.00000000000000E+00   2.63894246528442E-10   4.91495276641008E-34
      2.63894246528442E-10   4.94064755287907E-18
      2.12607426534693E-02
      0.00000000000000E+00   5.80476571660722E-11   0.00000000000000E+00   0.00000000000000E+00  -3.02985439910294E-10
      5.47768437401278E-34  -3.02985439910294E-10   5.25636085914880E-18   0.00000000000000E+00   0.00000000000000E+00
      0.00000000000000E+00   0.00000000000000E+00   0.00000000000000E+00   0.00000000000000E+00   0.00000000000000E+00
      2.00007926805909E-18   0.00000000000000E+00   0.00000000000000E+00   0.00000000000000E+00   0.00000000000000E+00
      3.52814468585677E-19  -1.02257209642123E-33   3.52814468585676E-19  -1.21990051550949E-17   1.06303713267347E-03
      1.06303707437763E-03   0.00000000000000E+00   0.00000000000000E+00   3.02985439557480E-10   4.74803659019955E-34
      3.02985439557480E-10   4.94256502788695E-18
      2.43801502521496E-02
      0.00000000000000E+00   6.61954793379636E-11   0.00000000000000E+00   0.00000000000000E+00  -3.45512198821012E-10
      5.32612147652152E-34  -3.45512198821012E-10   5.25625359777103E-18   0.00000000000000E+00   0.00000000000000E+00
      0.00000000000000E+00   0.00000000000000E+00   0.00000000000000E+00   0.00000000000000E+00   0.00000000000000E+00
      1.99795569937401E-18   0.00000000000000E+00   0.00000000000000E+00   0.00000000000000E+00   0.00000000000000E+00
      7.72726467214744E-19  -1.01042777501648E-33   7.72726467214743E-19  -1.21988836765346E-17   1.21900751260748E-03
      1.21900744612909E-03   0.00000000000000E+00   0.00000000000000E+00   3.45512198048286E-10   4.77815627364324E-34
      3.45512198048286E-10   4.94467437938951E-18
      2.78114986106979E-02
      0.00000000000000E+00   7.50486967263084E-11   0.00000000000000E+00   0.00000000000000E+00  -3.91720093240677E-10
      5.70809704819782E-34  -3.91720093240677E-10   5.25613561503873E-18   0.00000000000000E+00   0.00000000000000E+00
      0.00000000000000E+00   0.00000000000000E+00   0.00000000000000E+00   0.00000000000000E+00   0.00000000000000E+00
      1.99561986620716E-18   0.00000000000000E+00   0.00000000000000E+00   0.00000000000000E+00   0.00000000000000E+00
      1.57040816669799E-18  -1.06188871725112E-33   1.57040816669799E-18  -1.21987503031431E-17   1.39057493053490E-03
      1.39057485516559E-03   0.00000000000000E+00   0.00000000000000E+00   3.91720091670269E-10   4.91079012431337E-34
      3.91720091670269E-10   4.94699482189721E-18
      3.15859818051010E-02
      0.00000000000000E+00   8.46554148409860E-11   0.00000000000000E+00   0.00000000000000E+00  -4.41860062748501E-10
      5.64349519883996E-34  -4.41860062748501E-10   5.25600583981166E-18   0.00000000000000E+00   0.00000000000000E+00
      0.00000000000000E+00   0.00000000000000E+00   0.00000000000000E+00   0.00000000000000E+00   0.00000000000000E+00
      1.99305056123503E-18   0.00000000000000E+00   0.00000000000000E+00   0.00000000000000E+00   0.00000000000000E+00
      2.40312908208255E-18  -1.05233739167091E-33   2.40312908208255E-18  -1.21986038979858E-17   1.57929909025505E-03
      1.57929900523815E-03   0.00000000000000E+00   0.00000000000000E+00   4.41860060345372E-10   4.87987871786919E-34
      4.41860060345372E-10   4.94954749693907E-18
      3.57379133189445E-02
      0.00000000000000E+00   9.50642227991204E-11   0.00000000000000E+00   0.00000000000000E+00  -4.96185501508703E-10
      5.36251171501325E-34  -4.96185501508703E-10   5.25586309404034E-18   0.00000000000000E+00   0.00000000000000E+00
      0.00000000000000E+00   0.00000000000000E+00   0.00000000000000E+00   0.00000000000000E+00   0.00000000000000E+00
      1.99022446032778E-18   0.00000000000000E+00   0.00000000000000E+00   0.00000000000000E+00   0.00000000000000E+00
      3.99231771400541E-18  -1.02436433252200E-33   3.99231771400541E-18  -1.21984432212777E-17   1.78689566594722E-03
      1.78689557047727E-03   0.00000000000000E+00   0.00000000000000E+00   4.96185497516385E-10   4.88113161020677E-34
      4.96185497516385E-10   4.95235566690965E-18
      4.03050379841723E-02
      0.00000000000000E+00   1.06323491078594E-10   0.00000000000000E+00   0.00000000000000E+00  -5.54948532915636E-10
      5.48253215318899E-34  -5.54948532915636E-10   5.25570608211702E-18   0.00000000000000E+00   0.00000000000000E+00
      0.00000000000000E+00   0.00000000000000E+00   0.00000000000000E+00   0.00000000000000E+00   0.00000000000000E+00
      1.98711591166384E-18   0.00000000000000E+00   0.00000000000000E+00   0.00000000000000E+00   0.00000000000000E+00
      5.66099089454695E-18  -1.02965824762195E-33   5.66099089454695E-18  -1.21982669223144E-17   2.01525189920861E-03
      2.01525179243159E-03   0.00000000000000E+00   0.00000000000000E+00   5.54948527254645E-10   4.81405032303048E-34
      5.54948527254645E-10   4.95544492853356E-18
      4.53288751159228E-02
      0.00000000000000E+00   1.18480429499901E-10   0.00000000000000E+00   0.00000000000000E+00  -6.18395351390061E-10
      5.58429358041080E-34  -6.18395351390061E-10   5.25553337916879E-18   0.00000000000000E+00   0.00000000000000E+00
      0.00000000000000E+00   0.00000000000000E+00   0.00000000000000E+00   0.00000000000000E+00   0.00000000000000E+00
      1.98369670391366E-18   0.00000000000000E+00   0.00000000000000E+00   0.00000000000000E+00   0.00000000000000E+00
     -1.72377373125249E-18  -1.00898968755345E-33  -1.72377373125249E-18  -1.21980735310387E-17   2.26644375579614E-03
      2.26644363681059E-03   0.00000000000000E+00   0.00000000000000E+00   6.18395353113834E-10   4.50560329512373E-34
      6.18395353113834E-10   4.95884344795621E-18
      5.08550959608485E-02
      0.00000000000000E+00   1.31580054176054E-10   0.00000000000000E+00   0.00000000000000E+00  -6.86760520043126E-10
      5.21466345145641E-34  -6.86760520043126E-10   5.25534341819091E-18   0.00000000000000E+00   0.00000000000000E+00
      0.00000000000000E+00   0.00000000000000E+00   0.00000000000000E+00   0.00000000000000E+00   0.00000000000000E+00
      1.97993581142858E-18   0.00000000000000E+00   0.00000000000000E+00   0.00000000000000E+00   0.00000000000000E+00
      3.06028537175302E-17  -9.97204199268166E-34   3.06028537175302E-17  -1.21978614492954E-17   2.54275479804242E-03
      2.54275466590174E-03   0.00000000000000E+00   0.00000000000000E+00   6.86760489440271E-10   4.75737854122525E-34
      6.86760489440271E-10   4.96258221967588E-18
      5.69339388902666E-02
      0.00000000000000E+00   1.45663826097227E-10   0.00000000000000E+00   0.00000000000000E+00  -7.60259954419249E-10
      5.54122522981663E-34  -7.60259954419249E-10   5.25513447590473E-18   0.00000000000000E+00   0.00000000000000E+00
      0.00000000000000E+00   0.00000000000000E+00   0.00000000000000E+00   0.00000000000000E+00   0.00000000000000E+00
      1.97579911417993E-18   0.00000000000000E+00   0.00000000000000E+00   0.00000000000000E+00   0.00000000000000E+00
      1.85149778030398E-17  -1.00977804911103E-33   1.85149778030398E-17  -1.21976289418611E-17   2.84669694451333E-03
      2.84669679822929E-03   0.00000000000000E+00   0.00000000000000E+00   7.60259935904271E-10   4.55655526129365E-34
      7.60259935904271E-10   4.96669535177644E-18
      6.36206661126266E-02
      0.00000000000000E+00   1.60768108464285E-10   0.00000000000000E+00   0.00000000000000E+00  -8.39082999539371E-10
      5.12306547375070E-34  -8.39082999539371E-10   5.25490465721352E-18   0.00000000000000E+00   0.00000000000000E+00
      0.00000000000000E+00   0.00000000000000E+00   0.00000000000000E+00   0.00000000000000E+00   0.00000000000000E+00
      1.97124908992892E-18   0.00000000000000E+00   0.00000000000000E+00   0.00000000000000E+00   0.00000000000000E+00
     -2.84341243981301E-17  -9.68446594841954E-34  -2.84341243981301E-17  -1.21973741272896E-17   3.18103330563133E-03
      3.18103314417920E-03   0.00000000000000E+00   0.00000000000000E+00   8.39083027973496E-10   4.56140047466884E-34
      8.39083027973496E-10   4.97122038014718E-18
      7.09760660572226E-02
      0.00000000000000E+00   1.76922282652498E-10   0.00000000000000E+00   0.00000000000000E+00  -9.23382614093351E-10
      5.36995111401363E-34  -9.23382614093351E-10   5.25465187812200E-18   0.00000000000000E+00   0.00000000000000E+00
      0.00000000000000E+00   0.00000000000000E+00   0.00000000000000E+00   0.00000000000000E+00   0.00000000000000E+00
      1.96624447595824E-18   0.00000000000000E+00   0.00000000000000E+00   0.00000000000000E+00   0.00000000000000E+00
      3.89220322100562E-17  -9.72554184340146E-34   3.89220322100562E-17  -1.21970949687867E-17   3.54880330286113E-03
      3.54880312518666E-03   0.00000000000000E+00   0.00000000000000E+00   9.23382575171319E-10   4.35559072938782E-34
      9.23382575171319E-10   4.97619861470643E-18
      7.90670059962782E-02
      0.00000000000000E+00   1.94146725188961E-10   0.00000000000000E+00   0.00000000000000E+00  -1.01326450152475E-09
      5.32864446154218E-34  -1.01326450152475E-09   5.25437384696567E-18   0.00000000000000E+00   0.00000000000000E+00
      0.00000000000000E+00   0.00000000000000E+00   0.00000000000000E+00   0.00000000000000E+00   0.00000000000000E+00
      1.96073989733527E-18   0.00000000000000E+00   0.00000000000000E+00   0.00000000000000E+00   0.00000000000000E+00
      5.97925464781899E-17  -9.89303722923417E-34   5.97925464781899E-17  -1.21967892652346E-17   3.95335029981391E-03
      3.95335010484246E-03   0.00000000000000E+00   0.00000000000000E+00   1.01326444173220E-09   4.56439276769199E-34
      1.01326444173220E-09   4.98167552093372E-18
      8.79670399292394E-02
      0.00000000000000E+00   2.12450340136470E-10   0.00000000000000E+00   0.00000000000000E+00  -1.10877463667541E-09
      5.44888441235493E-34  -1.10877463667541E-09   5.25406804378687E-18   0.00000000000000E+00   0.00000000000000E+00
      0.00000000000000E+00   0.00000000000000E+00   0.00000000000000E+00   0.00000000000000E+00   0.00000000000000E+00
      1.95468545846633E-18   0.00000000000000E+00   0.00000000000000E+00   0.00000000000000E+00   0.00000000000000E+00
      8.75245025282295E-17  -1.00536186436685E-33   8.75245025282295E-17  -1.21964546426321E-17   4.39835199646197E-03
      4.39835178310996E-03   0.00000000000000E+00   0.00000000000000E+00   1.10877454915090E-09   4.60473423131358E-34
      1.10877454915090E-09   4.98770114037892E-18
      9.77570772554967E-02
      0.00000000000000E+00   2.31827985815315E-10   0.00000000000000E+00   0.00000000000000E+00  -1.20988552555820E-09
      5.48160816225515E-34  -1.20988552555820E-09   5.25373169766945E-18   0.00000000000000E+00   0.00000000000000E+00
      0.00000000000000E+00   0.00000000000000E+00   0.00000000000000E+00   0.00000000000000E+00   0.00000000000000E+00
      1.94802629423586E-18   0.00000000000000E+00   0.00000000000000E+00   0.00000000000000E+00   0.00000000000000E+00
     -1.11164797282856E-19  -9.70341902547543E-34  -1.11164797282857E-19  -1.21960885460357E-17   4.88785386277484E-03
      4.88785362996393E-03   0.00000000000000E+00   0.00000000000000E+00   1.20988552566937E-09   4.22181086322028E-34
      1.20988552566937E-09   4.99433055413040E-18
      1.07757077255497E-01
      0.00000000000000E+00   2.50828816108170E-10   0.00000000000000E+00   0.00000000000000E+00  -1.30902704789312E-09
      5.55858733794903E-34  -1.30902704789312E-09   5.25338817822349E-18   0.00000000000000E+00   0.00000000000000E+00
      0.00000000000000E+00   0.00000000000000E+00   0.00000000000000E+00   0.00000000000000E+00   0.00000000000000E+00
      1.94122508563992E-18   0.00000000000000E+00   0.00000000000000E+00   0.00000000000000E+00   0.00000000000000E+00
      1.40568678822768E-16  -9.66473807092597E-34   1.40568678822768E-16  -1.21957167370241E-17   5.38785386277483E-03
      5.38785361088350E-03   0.00000000000000E+00   0.00000000000000E+00   1.30902690732444E-09   4.10615073297694E-34
      1.30902690732444E-09   5.00110347316070E-18
      1.17757077255497E-01
      0.00000000000000E+00   2.69055608216110E-10   0.00000000000000E+00   0.00000000000000E+00  -1.40412674557779E-09
      5.49380603365151E-34  -1.40412674557779E-09   5.25304469903738E-18   0.00000000000000E+00   0.00000000000000E+00
      0.00000000000000E+00   0.00000000000000E+00   0.00000000000000E+00   0.00000000000000E+00   0.00000000000000E+00
      1.93442465149681E-18   0.00000000000000E+00   0.00000000000000E+00   0.00000000000000E+00   0.00000000000000E+00
      1.68578740059455E-16  -9.46397135268966E-34   1.68578740059455E-16  -1.21953470779292E-17   5.88785386277483E-03
      5.88785359258060E-03   0.00000000000000E+00   0.00000000000000E+00   1.40412657699905E-09   3.97016531903814E-34
      1.40412657699905E-09   5.00787772739498E-18
      1.27757077255497E-01
      0.00000000000000E+00   2.86535063761319E-10   0.00000000000000E+00   0.00000000000000E+00  -1.49532459090305E-09
      5.45777516474631E-34  -1.49532459090305E-09   5.25270125980222E-18   0.00000000000000E+00   0.00000000000000E+00
      0.00000000000000E+00   0.00000000000000E+00   0.00000000000000E+00   0.00000000000000E+00   0.00000000000000E+00
      1.92762498627015E-18   0.00000000000000E+00   0.00000000000000E+00   0.00000000000000E+00   0.00000000000000E+00
      1.17824725263823E-16  -9.40512417879086E-34   1.17824725263823E-16  -1.21949795569069E-17   6.38785386277483E-03
      6.38785357502831E-03   0.00000000000000E+00   0.00000000000000E+00   1.49532447307832E-09   3.94734901404456E-34
      1.49532447307832E-09   5.01465331083456E-18
      1.37757077255497E-01
      0.00000000000000E+00   3.03293493416258E-10   0.00000000000000E+00   0.00000000000000E+00  -1.58275834646952E-09
      5.55784819555673E-34  -1.58275834646952E-09   5.25235786020748E-18   0.00000000000000E+00   0.00000000000000E+00
      0.00000000000000E+00   0.00000000000000E+00   0.00000000000000E+00   0.00000000000000E+00   0.00000000000000E+00
      1.92082608446703E-18   0.00000000000000E+00   0.00000000000000E+00   0.00000000000000E+00   0.00000000000000E+00
      1.46119631536698E-16  -9.43759388317725E-34   1.46119631536698E-16  -1.21946141621944E-17   6.88785386277483E-03
      6.88785355820022E-03   0.00000000000000E+00   0.00000000000000E+00   1.58275820034989E-09   3.87974568762051E-34
      1.58275820034989E-09   5.02143021751995E-18
      1.47757077255497E-01
      0.00000000000000E+00   3.19356676291813E-10   0.00000000000000E+00   0.00000000000000E+00  -1.66656320081257E-09
      5.47067633002239E-34  -1.66656320081257E-09   5.25201449994213E-18   0.00000000000000E+00   0.00000000000000E+00
      0.00000000000000E+00   0.00000000000000E+00   0.00000000000000E+00   0.00000000000000E+00   0.00000000000000E+00
      1.91402794062860E-18   0.00000000000000E+00   0.00000000000000E+00   0.00000000000000E+00   0.00000000000000E+00
      7.47500262282723E-17  -9.29750447490343E-34   7.47500262282723E-17  -1.21942508820900E-17   7.38785386277483E-03
      7.38785354207040E-03   0.00000000000000E+00   0.00000000000000E+00   1.66656312606255E-09   3.82682814488104E-34
      1.66656312606255E-09   5.02820844151922E-18
      1.57757077255497E-01
      0.00000000000000E+00   3.34749907078838E-10   0.00000000000000E+00   0.00000000000000E+00  -1.74687139136724E-09
      5.68724259114060E-34  -1.74687139136724E-09   5.25167117869265E-18   0.00000000000000E+00   0.00000000000000E+00
      0.00000000000000E+00   0.00000000000000E+00   0.00000000000000E+00   0.00000000000000E+00   0.00000000000000E+00
      1.90723054930833E-18   0.00000000000000E+00   0.00000000000000E+00   0.00000000000000E+00   0.00000000000000E+00
      5.65971297899988E-21  -9.55573580281376E-34   5.65971297899893E-21  -1.21938897049269E-17   7.88785386277484E-03
      7.88785352661355E-03   0.00000000000000E+00   0.00000000000000E+00   1.74687139136158E-09   3.86849321167316E-34
      1.74687139136158E-09   5.03498797692593E-18
      1.67757077255497E-01
      0.00000000000000E+00   3.49497934276477E-10   0.00000000000000E+00   0.00000000000000E+00  -1.82381286724223E-09
      5.60504506104124E-34  -1.82381286724223E-09   5.25132789614737E-18   0.00000000000000E+00   0.00000000000000E+00
      0.00000000000000E+00   0.00000000000000E+00   0.00000000000000E+00   0.00000000000000E+00   0.00000000000000E+00
      1.90043390513571E-18   0.00000000000000E+00   0.00000000000000E+00   0.00000000000000E+00   0.00000000000000E+00
      1.40989741005176E-16  -9.39533592291879E-34   1.40989741005176E-16  -1.21935306191729E-17   8.38785386277484E-03
      8.38785351180456E-03   0.00000000000000E+00   0.00000000000000E+00   1.82381272625249E-09   3.79029086187754E-34
      1.82381272625249E-09   5.04176881788983E-18
      1.77757077255497E-01
      0.00000000000000E+00   3.63624789507252E-10   0.00000000000000E+00   0.00000000000000E+00  -1.89751316109853E-09
      5.37374224974823E-34  -1.89751316109853E-09   5.25098465199314E-18   0.00000000000000E+00   0.00000000000000E+00
      0.00000000000000E+00   0.00000000000000E+00   0.00000000000000E+00   0.00000000000000E+00   0.00000000000000E+00
      1.89363800272555E-18   0.00000000000000E+00   0.00000000000000E+00   0.00000000000000E+00   0.00000000000000E+00
      1.39232385282675E-16  -9.12181409827781E-34   1.39232385282675E-16  -1.21931736132827E-17   8.88785386277484E-03
      8.88785349761952E-03   0.00000000000000E+00   0.00000000000000E+00   1.89751302186615E-09   3.74807184852957E-34
      1.89751302186615E-09   5.04855095856406E-18
      1.87757077255497E-01
      0.00000000000000E+00   3.77153932192846E-10   0.00000000000000E+00   0.00000000000000E+00  -1.96809517814219E-09
      5.59306066614184E-34  -1.96809517814219E-09   5.25064144591993E-18   0.00000000000000E+00   0.00000000000000E+00
      0.00000000000000E+00   0.00000000000000E+00   0.00000000000000E+00   0.00000000000000E+00   0.00000000000000E+00
      1.88684283678105E-18   0.00000000000000E+00   0.00000000000000E+00   0.00000000000000E+00   0.00000000000000E+00
      1.37827542595914E-16  -9.09915884082481E-34   1.37827542595914E-16  -1.21928186758629E-17   9.38785386277484E-03
      9.38785348403479E-03   0.00000000000000E+00   0.00000000000000E+00   1.96809504031465E-09   3.50609817468296E-34
      1.96809504031465E-09   5.05533439316199E-18
      1.97757077255497E-01
      0.00000000000000E+00   3.90108185344061E-10   0.00000000000000E+00   0.00000000000000E+00  -2.03567841479914E-09