DF-ISE text

Info {
  version   = 1.0
  type      = xyplot
  datasets  = [
    "time"
    "source OuterVoltage" "source InnerVoltage" "source QuasiFermiPotential" "source DisplacementCurrent" "source eCurrent"
    "source hCurrent" "source TotalCurrent" "source Charge" "gate OuterVoltage" "gate InnerVoltage"
    "gate QuasiFermiPotential" "gate DisplacementCurrent" "gate eCurrent" "gate hCurrent" "gate TotalCurrent"
    "gate Charge" "substrate OuterVoltage" "substrate InnerVoltage" "substrate QuasiFermiPotential" "substrate DisplacementCurrent"
    "substrate eCurrent" "substrate hCurrent" "substrate TotalCurrent" "substrate Charge" "drain OuterVoltage"
    "drain InnerVoltage" "drain QuasiFermiPotential" "drain DisplacementCurrent" "drain eCurrent" "drain hCurrent"
    "drain TotalCurrent" "drain Charge" ]
  functions = [
    Time
    OuterVoltage InnerVoltage QuasiFermiPotential DisplacementCurrent eCurrent
    hCurrent TotalCurrent Charge OuterVoltage InnerVoltage
    QuasiFermiPotential DisplacementCurrent eCurrent hCurrent TotalCurrent
    Charge OuterVoltage InnerVoltage QuasiFermiPotential DisplacementCurrent
    eCurrent hCurrent TotalCurrent Charge OuterVoltage
    InnerVoltage QuasiFermiPotential DisplacementCurrent eCurrent hCurrent
    TotalCurrent Charge ]
}

Data {
      0.00000000000000E+00
      0.00000000000000E+00   0.00000000000000E+00   0.00000000000000E+00   0.00000000000000E+00  -4.70801789568328E-22
      6.59133710337776E-34  -4.70801789567669E-22   5.02406895414172E-18   0.00000000000000E+00   0.00000000000000E+00
      0.00000000000000E+00   0.00000000000000E+00   0.00000000000000E+00   0.00000000000000E+00   0.00000000000000E+00
      3.50579434773183E-18   0.00000000000000E+00   0.00000000000000E+00   0.00000000000000E+00   0.00000000000000E+00
      2.29373868820811E-21  -1.27784833564920E-33   2.29373868820683E-21  -1.27361998870154E-17   0.00000000000000E+00
      0.00000000000000E+00   0.00000000000000E+00   0.00000000000000E+00  -1.82293689863978E-21   6.18714625311425E-34
     -1.82293689863916E-21   4.20633658514183E-18
      0.00000000000000E+00
      0.00000000000000E+00   0.00000000000000E+00   0.00000000000000E+00   0.00000000000000E+00  -2.64734173794306E-20
      6.89291419386163E-34  -2.64734173794299E-20   5.02207568133146E-18   0.00000000000000E+00   0.00000000000000E+00
      0.00000000000000E+00   0.00000000000000E+00   0.00000000000000E+00   0.00000000000000E+00   0.00000000000000E+00
      3.49950413346805E-18   0.00000000000000E+00   0.00000000000000E+00   0.00000000000000E+00   0.00000000000000E+00
      2.74828287150014E-20  -1.32658330536818E-33   2.74828287150000E-20  -1.27264946576711E-17   0.00000000000000E+00
      0.00000000000000E+00   0.00000000000000E+00   0.00000000000000E+00  -1.00941133557071E-21   6.37291885982014E-34
     -1.00941133557007E-21   4.20491484287165E-18
      1.00000000000000E-03
      0.00000000000000E+00   1.61144321949820E-12   0.00000000000000E+00   0.00000000000000E+00  -7.64359323141278E-12
      6.17652867098496E-34  -7.64359323141278E-12   5.02205591357302E-18   0.00000000000000E+00   0.00000000000000E+00
      0.00000000000000E+00   0.00000000000000E+00   0.00000000000000E+00   0.00000000000000E+00   0.00000000000000E+00
      3.49891330014270E-18   0.00000000000000E+00   0.00000000000000E+00   0.00000000000000E+00   0.00000000000000E+00
     -9.79156950208062E-20  -1.25763216128222E-33  -9.79156950208074E-20  -1.27264752287854E-17   5.00000000000000E-05
      4.99999983680470E-05   0.00000000000000E+00   0.00000000000000E+00   7.64359332932847E-12   6.39979294183725E-34
      7.64359332932847E-12   4.20550601506972E-18
      2.09333333333333E-03
      0.00000000000000E+00   3.36792500021832E-12   0.00000000000000E+00   0.00000000000000E+00  -1.59751061501602E-11
      6.90600995681636E-34  -1.59751061501602E-11   5.02203430106804E-18   0.00000000000000E+00   0.00000000000000E+00
      0.00000000000000E+00   0.00000000000000E+00   0.00000000000000E+00   0.00000000000000E+00   0.00000000000000E+00
      3.49826733126834E-18   0.00000000000000E+00   0.00000000000000E+00   0.00000000000000E+00   0.00000000000000E+00
     -1.20835843788920E-20  -1.31692071423405E-33  -1.20835843788934E-20  -1.27264540079952E-17   1.04666666666667E-04
      1.04666663255887E-04   0.00000000000000E+00   0.00000000000000E+00   1.59751061622438E-11   6.26319718552417E-34
      1.59751061622438E-11   4.20615237565884E-18
      3.29600000000000E-03
      0.00000000000000E+00   5.29333076584477E-12   0.00000000000000E+00   0.00000000000000E+00  -2.51078671185246E-11
      6.31784201040501E-34  -2.51078671185246E-11   5.02201052760848E-18   0.00000000000000E+00   0.00000000000000E+00
      0.00000000000000E+00   0.00000000000000E+00   0.00000000000000E+00   0.00000000000000E+00   0.00000000000000E+00
      3.49755677622867E-18   0.00000000000000E+00   0.00000000000000E+00   0.00000000000000E+00   0.00000000000000E+00
     -3.88750949556905E-20  -1.26128221992697E-33  -3.88750949556918E-20  -1.27264306909955E-17   1.64800000000000E-04
      1.64799994639320E-04   0.00000000000000E+00   0.00000000000000E+00   2.51078671573997E-11   6.29498018886468E-34
      2.51078671573997E-11   4.20686338715833E-18
      4.61893333333333E-03
      0.00000000000000E+00   7.40298700347029E-12   0.00000000000000E+00   0.00000000000000E+00  -3.51145083541518E-11
      7.00895036898153E-34  -3.51145083541518E-11   5.02198437716185E-18   0.00000000000000E+00   0.00000000000000E+00
      0.00000000000000E+00   0.00000000000000E+00   0.00000000000000E+00   0.00000000000000E+00   0.00000000000000E+00
      3.49677517864617E-18   0.00000000000000E+00   0.00000000000000E+00   0.00000000000000E+00   0.00000000000000E+00
     -4.14330413547580E-20  -1.33341547122043E-33  -4.14330413547594E-20  -1.27264050735719E-17   2.30946666666667E-04
      2.30946659169500E-04   0.00000000000000E+00   0.00000000000000E+00   3.51145083955849E-11   6.32520434322281E-34
      3.51145083955849E-11   4.20764551776396E-18
      6.07416000000000E-03
      0.00000000000000E+00   9.71341749149160E-12   0.00000000000000E+00   0.00000000000000E+00  -4.60734729185141E-11
      6.32809090676853E-34  -4.60734729185141E-11   5.02195561210534E-18   0.00000000000000E+00   0.00000000000000E+00
      0.00000000000000E+00   0.00000000000000E+00   0.00000000000000E+00   0.00000000000000E+00   0.00000000000000E+00
      3.49591543697138E-18   0.00000000000000E+00   0.00000000000000E+00   0.00000000000000E+00   0.00000000000000E+00
     -2.09050990172121E-20  -1.27445979725805E-33  -2.09050990172134E-20  -1.27263769322158E-17   3.03708000000000E-04
      3.03707990162999E-04   0.00000000000000E+00   0.00000000000000E+00   4.60734729394192E-11   6.41650706581192E-34
      4.60734729394192E-11   4.20850588313909E-18
      7.67490933333333E-03
      0.00000000000000E+00   1.22424674141191E-11   0.00000000000000E+00   0.00000000000000E+00  -5.80692334728170E-11
      6.88495031593711E-34  -5.80692334728170E-11   5.02192397106966E-18   0.00000000000000E+00   0.00000000000000E+00
      0.00000000000000E+00   0.00000000000000E+00   0.00000000000000E+00   0.00000000000000E+00   0.00000000000000E+00
      3.49496974006223E-18   0.00000000000000E+00   0.00000000000000E+00   0.00000000000000E+00   0.00000000000000E+00
      2.28658064818153E-20  -1.33549466728830E-33   2.28658064818140E-20  -1.27263460224280E-17   3.83745466666667E-04
      3.83745454268454E-04   0.00000000000000E+00   0.00000000000000E+00   5.80692334499512E-11   6.46999635694587E-34
      5.80692334499512E-11   4.20945231129614E-18
      9.43573360000000E-03
      0.00000000000000E+00   1.50092487509926E-11   0.00000000000000E+00   0.00000000000000E+00  -7.11924967832718E-11
      6.88185254159614E-34  -7.11924967832718E-11   5.02188916656762E-18   0.00000000000000E+00   0.00000000000000E+00
      0.00000000000000E+00   0.00000000000000E+00   0.00000000000000E+00   0.00000000000000E+00   0.00000000000000E+00
      3.49392949634098E-18   0.00000000000000E+00   0.00000000000000E+00   0.00000000000000E+00   0.00000000000000E+00
      4.12625457789733E-20  -1.30730984128792E-33   4.12625457789720E-20  -1.27263120769025E-17   4.71786680000000E-04
      4.71786664799826E-04   0.00000000000000E+00   0.00000000000000E+00   7.11924967420092E-11   6.19124587128303E-34
      7.11924967420092E-11   4.21049341399393E-18
      1.13726402933333E-02
      0.00000000000000E+00   1.80342370864989E-11   0.00000000000000E+00   0.00000000000000E+00  -8.55403629430041E-11
      6.83915007918985E-34  -8.55403629430041E-11   5.02185088238640E-18   0.00000000000000E+00   0.00000000000000E+00
      0.00000000000000E+00   0.00000000000000E+00   0.00000000000000E+00   0.00000000000000E+00   0.00000000000000E+00
      3.49278525589067E-18   0.00000000000000E+00   0.00000000000000E+00   0.00000000000000E+00   0.00000000000000E+00
      3.42973508621729E-20  -1.31656118625006E-33   3.42973508621715E-20  -1.27262748035854E-17   5.68632014666667E-04
      5.68631996403035E-04   0.00000000000000E+00   0.00000000000000E+00   8.55403629087068E-11   6.32646178331078E-34
      8.55403629087068E-11   4.21163866530839E-18
      1.35032376560000E-02
      0.00000000000000E+00   2.13392947778137E-11   0.00000000000000E+00   0.00000000000000E+00  -1.01216416739697E-10
      6.96028517090562E-34  -1.01216416739697E-10   5.02180877071972E-18   0.00000000000000E+00   0.00000000000000E+00
      0.00000000000000E+00   0.00000000000000E+00   0.00000000000000E+00   0.00000000000000E+00   0.00000000000000E+00
      3.49152662478987E-18   0.00000000000000E+00   0.00000000000000E+00   0.00000000000000E+00   0.00000000000000E+00
      8.87092014022901E-20  -1.28920980565854E-33   8.87092014022888E-20  -1.27262338836102E-17   6.75161882800000E-04
      6.75161861189288E-04   0.00000000000000E+00   0.00000000000000E+00   1.01216416650988E-10   5.93181288567974E-34
      1.01216416650988E-10   4.21289848810067E-18
      1.58468947549333E-02
      0.00000000000000E+00   2.49476386851289E-11   0.00000000000000E+00   0.00000000000000E+00  -1.18330726328625E-10
      6.68785590258822E-34  -1.18330726328625E-10   5.02176244901417E-18   0.00000000000000E+00   0.00000000000000E+00
      0.00000000000000E+00   0.00000000000000E+00   0.00000000000000E+00   0.00000000000000E+00   0.00000000000000E+00
      3.49014217091517E-18   0.00000000000000E+00   0.00000000000000E+00   0.00000000000000E+00   0.00000000000000E+00
      8.98156445923728E-20  -1.30112867971660E-33   8.98156445923715E-20  -1.27261889691102E-17   7.92344737746667E-04
      7.92344712481742E-04   0.00000000000000E+00   0.00000000000000E+00   1.18330726238809E-10   6.32343089457778E-34
      1.18330726238809E-10   4.21428434918081E-18
      1.84249175637600E-02
      0.00000000000000E+00   2.88838269327718E-11   0.00000000000000E+00   0.00000000000000E+00  -1.36999722588272E-10
      6.60253372671882E-34  -1.36999722588272E-10   5.02171149650145E-18   0.00000000000000E+00   0.00000000000000E+00
      0.00000000000000E+00   0.00000000000000E+00   0.00000000000000E+00   0.00000000000000E+00   0.00000000000000E+00
      3.48861932036527E-18   0.00000000000000E+00   0.00000000000000E+00   0.00000000000000E+00   0.00000000000000E+00
      1.72613137708881E-19  -1.25818900005391E-33   1.72613137708880E-19  -1.27261396809131E-17   9.21245878188001E-04
      9.21245848936842E-04   0.00000000000000E+00   0.00000000000000E+00   1.36999722415659E-10   5.97935627382025E-34
      1.36999722415659E-10   4.21580886404635E-18
      2.12607426534693E-02
      0.00000000000000E+00   3.31737216748518E-11   0.00000000000000E+00   0.00000000000000E+00  -1.57345923649829E-10
      6.45455025515626E-34  -1.57345923649829E-10   5.02165545038528E-18   0.00000000000000E+00   0.00000000000000E+00
      0.00000000000000E+00   0.00000000000000E+00   0.00000000000000E+00   0.00000000000000E+00   0.00000000000000E+00
      3.48694424357734E-18   0.00000000000000E+00   0.00000000000000E+00   0.00000000000000E+00   0.00000000000000E+00
      2.56266418746515E-19  -1.26940645357656E-33   2.56266418746513E-19  -1.27260856061275E-17   1.06303713267347E-03
      1.06303709907789E-03   0.00000000000000E+00   0.00000000000000E+00   1.57345923393562E-10   6.23951428060937E-34
      1.57345923393562E-10   4.21748591216492E-18
      2.43801502521496E-02
      0.00000000000000E+00   3.78443558790204E-11   0.00000000000000E+00   0.00000000000000E+00  -1.79497463708055E-10
      6.62419451485456E-34  -1.79497463708055E-10   5.02159380164839E-18   0.00000000000000E+00   0.00000000000000E+00
      0.00000000000000E+00   0.00000000000000E+00   0.00000000000000E+00   0.00000000000000E+00   0.00000000000000E+00
      3.48510173011712E-18   0.00000000000000E+00   0.00000000000000E+00   0.00000000000000E+00   0.00000000000000E+00
      3.25034587541409E-18  -1.26517835135039E-33   3.25034587541409E-18  -1.27260262956363E-17   1.21900751260748E-03
      1.21900747428191E-03   0.00000000000000E+00   0.00000000000000E+00   1.79497460457710E-10   6.02758899864938E-34
      1.79497460457710E-10   4.21933076387078E-18
      2.78114986106979E-02
      0.00000000000000E+00   4.29238365171532E-11   0.00000000000000E+00   0.00000000000000E+00  -2.03587421326474E-10
      6.72500409815174E-34  -2.03587421326474E-10   5.02152599044224E-18   0.00000000000000E+00   0.00000000000000E+00
      0.00000000000000E+00   0.00000000000000E+00   0.00000000000000E+00   0.00000000000000E+00   0.00000000000000E+00
      3.48307505100299E-18   0.00000000000000E+00   0.00000000000000E+00   0.00000000000000E+00   0.00000000000000E+00
      5.39725872239662E-19  -1.25031851426711E-33   5.39725872239661E-19  -1.27259612614934E-17   1.39057493053490E-03
      1.39057488706531E-03   0.00000000000000E+00   0.00000000000000E+00   2.03587420786748E-10   5.77818104451939E-34
      2.03587420786748E-10   4.22136022004822E-18
      3.15859818051010E-02
      0.00000000000000E+00   4.84410706859988E-11   0.00000000000000E+00   0.00000000000000E+00  -2.29752830899588E-10
      6.84818122910696E-34  -2.29752830899588E-10   5.02145140101879E-18   0.00000000000000E+00   0.00000000000000E+00
      0.00000000000000E+00   0.00000000000000E+00   0.00000000000000E+00   0.00000000000000E+00   0.00000000000000E+00
      3.48084580737186E-18   0.00000000000000E+00   0.00000000000000E+00   0.00000000000000E+00   0.00000000000000E+00
      8.15413171629555E-19  -1.29567809236984E-33   8.15413171629554E-19  -1.27258899743019E-17   1.57929909025505E-03
      1.57929904119812E-03   0.00000000000000E+00   0.00000000000000E+00   2.29752830084175E-10   6.10859969459148E-34
      2.29752830084175E-10   4.22359276591127E-18
      3.57379133189445E-02
      0.00000000000000E+00   5.44255587496622E-11   0.00000000000000E+00   0.00000000000000E+00  -2.58133334279781E-10
      6.53969002490857E-34  -2.58133334279781E-10   5.02136935615708E-18   0.00000000000000E+00   0.00000000000000E+00
      0.00000000000000E+00   0.00000000000000E+00   0.00000000000000E+00   0.00000000000000E+00   0.00000000000000E+00
      3.47839376409686E-18   0.00000000000000E+00   0.00000000000000E+00   0.00000000000000E+00   0.00000000000000E+00
      1.21679179935769E-18  -1.24615708559404E-33   1.21679179935769E-18  -1.27258118605575E-17   1.78689566594722E-03
      1.78689561082980E-03   0.00000000000000E+00   0.00000000000000E+00   2.58133333062989E-10   5.92188083103188E-34
      2.58133333062989E-10   4.22604874030349E-18
      4.03050379841723E-02
      0.00000000000000E+00   6.09070004828942E-11   0.00000000000000E+00   0.00000000000000E+00  -2.88869507651546E-10
      6.67587085840977E-34  -2.88869507651546E-10   5.02127911103661E-18   0.00000000000000E+00   0.00000000000000E+00
      0.00000000000000E+00   0.00000000000000E+00   0.00000000000000E+00   0.00000000000000E+00   0.00000000000000E+00
      3.47569666688784E-18   0.00000000000000E+00   0.00000000000000E+00   0.00000000000000E+00   0.00000000000000E+00
      1.84065115546763E-18  -1.24137527869766E-33   1.84065115546763E-18  -1.27257263000268E-17   2.01525189920861E-03
      2.01525183752742E-03   0.00000000000000E+00   0.00000000000000E+00   2.88869505810895E-10   5.73788192856688E-34
      2.88869505810895E-10   4.22875052210235E-18
      4.53288751159228E-02
      0.00000000000000E+00   6.79148176439435E-11   0.00000000000000E+00   0.00000000000000E+00  -3.22100641493743E-10
      6.15156200382861E-34  -3.22100641493743E-10   5.02117984650218E-18   0.00000000000000E+00   0.00000000000000E+00
      0.00000000000000E+00   0.00000000000000E+00   0.00000000000000E+00   0.00000000000000E+00   0.00000000000000E+00
      3.47273004125232E-18   0.00000000000000E+00   0.00000000000000E+00   0.00000000000000E+00   0.00000000000000E+00
      3.92633493420409E-18  -1.19507163968133E-33   3.92633493420409E-18  -1.27256326232304E-17   2.26644375579614E-03
      2.26644368701814E-03   0.00000000000000E+00   0.00000000000000E+00   3.22100637567408E-10   5.79915439298471E-34
      3.22100637567408E-10   4.23172273547596E-18
      5.08550959608485E-02
      0.00000000000000E+00   7.54776360033365E-11   0.00000000000000E+00   0.00000000000000E+00  -3.57962024396800E-10
      6.46058329967839E-34  -3.57962024396800E-10   5.02107066165925E-18   0.00000000000000E+00   0.00000000000000E+00
      0.00000000000000E+00   0.00000000000000E+00   0.00000000000000E+00   0.00000000000000E+00   0.00000000000000E+00
      3.46946697151222E-18   0.00000000000000E+00   0.00000000000000E+00   0.00000000000000E+00   0.00000000000000E+00
      3.96561810102362E-18  -1.21720402463370E-33   3.96561810102361E-18  -1.27255301090827E-17   2.54275479804242E-03
      2.54275472160558E-03   0.00000000000000E+00   0.00000000000000E+00   3.57962020431182E-10   5.71145694665862E-34
      3.57962020431182E-10   4.23499247591122E-18
      5.69339388902666E-02
      0.00000000000000E+00   8.36225108693365E-11   0.00000000000000E+00   0.00000000000000E+00  -3.96581615805830E-10
      6.93192864216422E-34  -3.96581615805830E-10   5.02095056573504E-18   0.00000000000000E+00   0.00000000000000E+00
      0.00000000000000E+00   0.00000000000000E+00   0.00000000000000E+00   0.00000000000000E+00   0.00000000000000E+00
      3.46587785793504E-18   0.00000000000000E+00   0.00000000000000E+00   0.00000000000000E+00   0.00000000000000E+00
      2.27676987769952E-17  -1.25507477623680E-33   2.27676987769952E-17  -1.27254179828159E-17   2.84669694451333E-03
      2.84669685982822E-03   0.00000000000000E+00   0.00000000000000E+00   3.96581593038131E-10   5.61881912020383E-34
      3.96581593038131E-10   4.23858955914579E-18
      6.36206661126266E-02
      0.00000000000000E+00   9.23741186887700E-11   0.00000000000000E+00   0.00000000000000E+00  -4.38075927924841E-10
      6.91403364818360E-34  -4.38075927924841E-10   5.02081846913186E-18   0.00000000000000E+00   0.00000000000000E+00
      0.00000000000000E+00   0.00000000000000E+00   0.00000000000000E+00   0.00000000000000E+00   0.00000000000000E+00
      3.46193014981348E-18   0.00000000000000E+00   0.00000000000000E+00   0.00000000000000E+00   0.00000000000000E+00
      1.68083722497561E-17  -1.25319538442085E-33   1.68083722497561E-17  -1.27252954142945E-17   3.18103330563133E-03
      3.18103321208355E-03   0.00000000000000E+00   0.00000000000000E+00   4.38075911116469E-10   5.61792019602487E-34
      4.38075911116469E-10   4.24254679534910E-18
      7.09760660572226E-02
      0.00000000000000E+00   1.01753774060110E-10   0.00000000000000E+00   0.00000000000000E+00  -4.82545439737359E-10
      6.52116130716858E-34  -4.82545439737359E-10   5.02067317359371E-18   0.00000000000000E+00   0.00000000000000E+00
      0.00000000000000E+00   0.00000000000000E+00   0.00000000000000E+00   0.00000000000000E+00   0.00000000000000E+00
      3.45758805212002E-18   0.00000000000000E+00   0.00000000000000E+00   0.00000000000000E+00   0.00000000000000E+00
      1.42135143589635E-17  -1.22316561570929E-33   1.42135143589635E-17  -1.27251615168554E-17   3.54880330286113E-03
      3.54880319981467E-03   0.00000000000000E+00   0.00000000000000E+00   4.82545425523844E-10   5.71049484992432E-34
      4.82545425523844E-10   4.24690029114166E-18
      7.90670059962782E-02
      0.00000000000000E+00   1.11778210928988E-10   0.00000000000000E+00   0.00000000000000E+00  -5.30068890938965E-10
      6.60638004025341E-34  -5.30068890938965E-10   5.02051336139832E-18   0.00000000000000E+00   0.00000000000000E+00
      0.00000000000000E+00   0.00000000000000E+00   0.00000000000000E+00   0.00000000000000E+00   0.00000000000000E+00
      3.45281220318079E-18   0.00000000000000E+00   0.00000000000000E+00   0.00000000000000E+00   0.00000000000000E+00
      1.79256353409410E-17  -1.20162035195274E-33   1.79256353409410E-17  -1.27250153468976E-17   3.95335029981391E-03
      3.95335018661584E-03   0.00000000000000E+00   0.00000000000000E+00   5.30068873013330E-10   5.40982347927403E-34
      5.30068873013330E-10   4.25168978231850E-18
      8.79670399292394E-02
      0.00000000000000E+00   1.22458271111547E-10   0.00000000000000E+00   0.00000000000000E+00  -5.80696964223380E-10
      6.38607318549188E-34  -5.80696964223380E-10   5.02033758347833E-18   0.00000000000000E+00   0.00000000000000E+00
      0.00000000000000E+00   0.00000000000000E+00   0.00000000000000E+00   0.00000000000000E+00   0.00000000000000E+00
      3.44755932047671E-18   0.00000000000000E+00   0.00000000000000E+00   0.00000000000000E+00   0.00000000000000E+00
      2.60366499614857E-17  -1.17995703060652E-33   2.60366499614857E-17  -1.27248559043881E-17   4.39835199646197E-03
      4.39835187244836E-03   0.00000000000000E+00   0.00000000000000E+00   5.80696938186731E-10   5.41349712057330E-34
      5.80696938186731E-10   4.25695900043309E-18
      9.77570772554967E-02
      0.00000000000000E+00   1.33797376858535E-10   0.00000000000000E+00   0.00000000000000E+00  -6.34445077699751E-10
      6.82192979474730E-34  -6.34445077699751E-10   5.02014424636779E-18   0.00000000000000E+00   0.00000000000000E+00
      0.00000000000000E+00   0.00000000000000E+00   0.00000000000000E+00   0.00000000000000E+00   0.00000000000000E+00
      3.44178181151265E-18   0.00000000000000E+00   0.00000000000000E+00   0.00000000000000E+00   0.00000000000000E+00
      2.70188386140914E-17  -1.21461014829324E-33   2.70188386140914E-17  -1.27246821346407E-17   4.88785386277484E-03
      4.88785372727832E-03   0.00000000000000E+00   0.00000000000000E+00   6.34445050680913E-10   5.32417168818507E-34
      6.34445050680913E-10   4.26275607676033E-18
      1.07757077255497E-01
      0.00000000000000E+00   1.44949803626283E-10   0.00000000000000E+00   0.00000000000000E+00  -6.87304064520885E-10
      6.22616634016102E-34  -6.87304064520885E-10   5.01994678278659E-18   0.00000000000000E+00   0.00000000000000E+00
      0.00000000000000E+00   0.00000000000000E+00   0.00000000000000E+00   0.00000000000000E+00   0.00000000000000E+00
      3.43588110524611E-18   0.00000000000000E+00   0.00000000000000E+00   0.00000000000000E+00   0.00000000000000E+00
      5.12118878871477E-17  -1.15468435509767E-33   5.12118878871477E-17  -1.27245063757873E-17   5.38785386277483E-03
      5.38785371598449E-03   0.00000000000000E+00   0.00000000000000E+00   6.87304013308997E-10   5.32067721081564E-34
      6.87304013308997E-10   4.26867848775457E-18
      1.17757077255497E-01
      0.00000000000000E+00   1.55680845084863E-10   0.00000000000000E+00   0.00000000000000E+00  -7.38161765740304E-10
      5.99468751121213E-34  -7.38161765740304E-10   5.01974933918177E-18   0.00000000000000E+00   0.00000000000000E+00
      0.00000000000000E+00   0.00000000000000E+00   0.00000000000000E+00   0.00000000000000E+00   0.00000000000000E+00
      3.42998111113552E-18   0.00000000000000E+00   0.00000000000000E+00   0.00000000000000E+00   0.00000000000000E+00
      5.79818921610250E-17  -1.11897098603132E-33   5.79818921610250E-17  -1.27243323613333E-17   5.88785386277483E-03
      5.88785370511740E-03   0.00000000000000E+00   0.00000000000000E+00   7.38161707758412E-10   5.19502234910107E-34
      7.38161707758412E-10   4.27460191101598E-18
      1.27757077255497E-01
      0.00000000000000E+00   1.66003559735559E-10   0.00000000000000E+00   0.00000000000000E+00  -7.87080427980665E-10
      6.54614480539900E-34  -7.87080427980665E-10   5.01955191536958E-18   0.00000000000000E+00   0.00000000000000E+00
      0.00000000000000E+00   0.00000000000000E+00   0.00000000000000E+00   0.00000000000000E+00   0.00000000000000E+00
      3.42408182337469E-18   0.00000000000000E+00   0.00000000000000E+00   0.00000000000000E+00   0.00000000000000E+00
      4.29182416268373E-17  -1.14504632277175E-33   4.29182416268373E-17  -1.27241600795672E-17   6.38785386277483E-03
      6.38785369466385E-03   0.00000000000000E+00   0.00000000000000E+00   7.87080385062424E-10   4.90431842231854E-34
      7.87080385062424E-10   4.28052634082291E-18
      1.37757077255497E-01
      0.00000000000000E+00   1.75930862106825E-10   0.00000000000000E+00   0.00000000000000E+00  -8.34121605408111E-10
      6.53333894602678E-34  -8.34121605408111E-10   5.01935451116556E-18   0.00000000000000E+00   0.00000000000000E+00
      0.00000000000000E+00   0.00000000000000E+00   0.00000000000000E+00   0.00000000000000E+00   0.00000000000000E+00
      3.41818323621197E-18   0.00000000000000E+00   0.00000000000000E+00   0.00000000000000E+00   0.00000000000000E+00
      4.22475739303410E-17  -1.14741747634231E-33   4.22475739303410E-17  -1.27239895188611E-17   6.88785386277483E-03
      6.88785368461076E-03   0.00000000000000E+00   0.00000000000000E+00   8.34121563160537E-10   4.94083581739635E-34
      8.34121563160537E-10   4.28645177148358E-18
      1.47757077255497E-01
      0.00000000000000E+00   1.85475408568935E-10   0.00000000000000E+00   0.00000000000000E+00  -8.79345826613591E-10
      6.79552641390289E-34  -8.79345826613591E-10   5.01915712638621E-18   0.00000000000000E+00   0.00000000000000E+00
      0.00000000000000E+00   0.00000000000000E+00   0.00000000000000E+00   0.00000000000000E+00   0.00000000000000E+00
      3.41228534398224E-18   0.00000000000000E+00   0.00000000000000E+00   0.00000000000000E+00   0.00000000000000E+00
      4.15519858759704E-17  -1.15804473456502E-33   4.15519858759704E-17  -1.27238206677259E-17   7.38785386277483E-03
      7.38785367494531E-03   0.00000000000000E+00   0.00000000000000E+00   8.79345785061605E-10   4.78492093174733E-34
      8.79345785061605E-10   4.29237819735743E-18
      1.57757077255497E-01
      0.00000000000000E+00   1.94649796744626E-10   0.00000000000000E+00   0.00000000000000E+00  -9.22812965533083E-10
      6.60092743779581E-34  -9.22812965533083E-10   5.01895976084583E-18   0.00000000000000E+00   0.00000000000000E+00
      0.00000000000000E+00   0.00000000000000E+00   0.00000000000000E+00   0.00000000000000E+00   0.00000000000000E+00
      3.40638814093658E-18   0.00000000000000E+00   0.00000000000000E+00   0.00000000000000E+00   0.00000000000000E+00
      4.08438822221543E-17  -1.15150464418053E-33   4.08438822221543E-17  -1.27236535145947E-17   7.88785386277484E-03
      7.88785366565475E-03   0.00000000000000E+00   0.00000000000000E+00   9.22812924689200E-10   4.91411900400951E-34
      9.22812924689200E-10   4.29830561281229E-18
      1.67757077255497E-01
      0.00000000000000E+00   2.03466278390871E-10   0.00000000000000E+00   0.00000000000000E+00  -9.64581527604204E-10
      6.50782511247922E-34  -9.64581527604204E-10   5.01876241436042E-18   0.00000000000000E+00   0.00000000000000E+00
      0.00000000000000E+00   0.00000000000000E+00   0.00000000000000E+00   0.00000000000000E+00   0.00000000000000E+00
      3.40049162144827E-18   0.00000000000000E+00   0.00000000000000E+00   0.00000000000000E+00   0.00000000000000E+00
      4.02079180835843E-17  -1.11463198954097E-33   4.02079180835843E-17  -1.27234880480808E-17   8.38785386277484E-03
      8.38785365672660E-03   0.00000000000000E+00   0.00000000000000E+00   9.64581487396286E-10   4.63849478293049E-34
      9.64581487396286E-10   4.30423401227211E-18
      1.77757077255497E-01
      0.00000000000000E+00   2.11936871929361E-10   0.00000000000000E+00   0.00000000000000E+00  -1.00470879357044E-09
      6.88545855830904E-34  -1.00470879357044E-09   5.01856508674638E-18   0.00000000000000E+00   0.00000000000000E+00
      0.00000000000000E+00   0.00000000000000E+00   0.00000000000000E+00   0.00000000000000E+00   0.00000000000000E+00
      3.39459577992984E-18   0.00000000000000E+00   0.00000000000000E+00   0.00000000000000E+00   0.00000000000000E+00
      3.95809721574668E-17  -1.15667192482640E-33   3.95809721574668E-17  -1.27233242568600E-17   8.88785386277484E-03
      8.88785364814868E-03   0.00000000000000E+00   0.00000000000000E+00   1.00470875398947E-09   4.68126068995492E-34
      1.00470875398947E-09   4.31016339018376E-18
      1.87757077255497E-01
      0.00000000000000E+00   2.20073297079538E-10   0.00000000000000E+00   0.00000000000000E+00  -1.04325060977271E-09
      6.67929779443668E-34  -1.04325060977271E-09   5.01836777782184E-18   0.00000000000000E+00   0.00000000000000E+00
      0.00000000000000E+00   0.00000000000000E+00   0.00000000000000E+00   0.00000000000000E+00   0.00000000000000E+00
      3.38870061090466E-18   0.00000000000000E+00   0.00000000000000E+00   0.00000000000000E+00   0.00000000000000E+00
      3.33812997274923E-17  -1.14465582505193E-33   3.33812997274923E-17  -1.27231621297787E-17   9.38785386277484E-03
      9.38785363990916E-03   0.00000000000000E+00   0.00000000000000E+00   1.04325057639141E-09   4.76726045608260E-34
      1.04325057639141E-09   4.31609374105221E-18
      1.97757077255497E-01
      0.00000000000000E+00   2.27887057601594E-10   0.00000000000000E+00   0.00000000000000E+00  -1.08026176831477E-09