DF-ISE text

Info {
  version   = 1.0
  type      = xyplot
  datasets  = [
    "time"
    "source OuterVoltage" "source InnerVoltage" "source QuasiFermiPotential" "source DisplacementCurrent" "source eCurrent"
    "source hCurrent" "source TotalCurrent" "source Charge" "gate OuterVoltage" "gate InnerVoltage"
    "gate QuasiFermiPotential" "gate DisplacementCurrent" "gate eCurrent" "gate hCurrent" "gate TotalCurrent"
    "gate Charge" "substrate OuterVoltage" "substrate InnerVoltage" "substrate QuasiFermiPotential" "substrate DisplacementCurrent"
    "substrate eCurrent" "substrate hCurrent" "substrate TotalCurrent" "substrate Charge" "drain OuterVoltage"
    "drain InnerVoltage" "drain QuasiFermiPotential" "drain DisplacementCurrent" "drain eCurrent" "drain hCurrent"
    "drain TotalCurrent" "drain Charge" ]
  functions = [
    Time
    OuterVoltage InnerVoltage QuasiFermiPotential DisplacementCurrent eCurrent
    hCurrent TotalCurrent Charge OuterVoltage InnerVoltage
    QuasiFermiPotential DisplacementCurrent eCurrent hCurrent TotalCurrent
    Charge OuterVoltage InnerVoltage QuasiFermiPotential DisplacementCurrent
    eCurrent hCurrent TotalCurrent Charge OuterVoltage
    InnerVoltage QuasiFermiPotential DisplacementCurrent eCurrent hCurrent
    TotalCurrent Charge ]
}

Data {
      0.00000000000000E+00
      0.00000000000000E+00   0.00000000000000E+00   0.00000000000000E+00   0.00000000000000E+00   1.02228864690231E-20
      5.67642213045560E-34   1.02228864690236E-20   5.68225082604145E-18   0.00000000000000E+00   0.00000000000000E+00
      0.00000000000000E+00   0.00000000000000E+00   0.00000000000000E+00   0.00000000000000E+00   0.00000000000000E+00
      4.58688792546826E-18   0.00000000000000E+00   0.00000000000000E+00   0.00000000000000E+00   0.00000000000000E+00
     -1.20486338236878E-20  -1.16003537786886E-33  -1.20486338236890E-20  -1.51114021436845E-17   0.00000000000000E+00
      0.00000000000000E+00   0.00000000000000E+00   0.00000000000000E+00   1.82574735466477E-21   5.92393164823301E-34
      1.82574735466536E-21   4.84226339217482E-18
      0.00000000000000E+00
      0.00000000000000E+00   0.00000000000000E+00   0.00000000000000E+00   0.00000000000000E+00   2.76592783178250E-19
      5.49147598964305E-34   2.76592783178251E-19   5.68004817312196E-18   0.00000000000000E+00   0.00000000000000E+00
      0.00000000000000E+00   0.00000000000000E+00   0.00000000000000E+00   0.00000000000000E+00   0.00000000000000E+00
      4.57952923859323E-18   0.00000000000000E+00   0.00000000000000E+00   0.00000000000000E+00   0.00000000000000E+00
     -1.97868319920525E-19  -1.11222038927644E-33  -1.97868319920526E-19  -1.51000444982457E-17   0.00000000000000E+00
      0.00000000000000E+00   0.00000000000000E+00   0.00000000000000E+00  -7.87244632577254E-20   5.63072790312137E-34
     -7.87244632577248E-20   4.84046708653057E-18
      1.00000000000000E-03
      0.00000000000000E+00   9.36776387022335E-13   0.00000000000000E+00   0.00000000000000E+00  -4.80659604370831E-12
      5.71596064450634E-34  -4.80659604370831E-12   5.68003088888038E-18   0.00000000000000E+00   0.00000000000000E+00
      0.00000000000000E+00   0.00000000000000E+00   0.00000000000000E+00   0.00000000000000E+00   0.00000000000000E+00
      4.57887821766333E-18   0.00000000000000E+00   0.00000000000000E+00   0.00000000000000E+00   0.00000000000000E+00
     -1.97280045652342E-19  -1.14761140805362E-33  -1.97280045652344E-19  -1.51000185691547E-17   5.00000000000000E-05
      4.99999990593628E-05   0.00000000000000E+00   0.00000000000000E+00   4.80659624098835E-12   5.76015343602985E-34
      4.80659624098835E-12   4.84110946261099E-18
      2.09333333333333E-03
      0.00000000000000E+00   1.95795808753839E-12   0.00000000000000E+00   0.00000000000000E+00  -1.00462695949169E-11
      5.91883419084000E-34  -1.00462695949169E-11   5.68001199161441E-18   0.00000000000000E+00   0.00000000000000E+00
      0.00000000000000E+00   0.00000000000000E+00   0.00000000000000E+00   0.00000000000000E+00   0.00000000000000E+00
      4.57816644360056E-18   0.00000000000000E+00   0.00000000000000E+00   0.00000000000000E+00   0.00000000000000E+00
     -3.75392586452448E-19  -1.16084511872864E-33  -3.75392586452449E-19  -1.50999902432021E-17   1.04666666666667E-04
      1.04666664700622E-04   0.00000000000000E+00   0.00000000000000E+00   1.00462699703095E-11   5.68961699644641E-34
      1.00462699703095E-11   4.84181180798705E-18
      3.29600000000000E-03
      0.00000000000000E+00   3.07748473670659E-12   0.00000000000000E+00   0.00000000000000E+00  -1.57905104192646E-11
      5.67655722676354E-34  -1.57905104192646E-11   5.67999120482951E-18   0.00000000000000E+00   0.00000000000000E+00
      0.00000000000000E+00   0.00000000000000E+00   0.00000000000000E+00   0.00000000000000E+00   0.00000000000000E+00
      4.57738350276406E-18   0.00000000000000E+00   0.00000000000000E+00   0.00000000000000E+00   0.00000000000000E+00
     -2.76808403222713E-19  -1.15629871142186E-33  -2.76808403222714E-19  -1.50999591126093E-17   1.64800000000000E-04
      1.64799996909819E-04   0.00000000000000E+00   0.00000000000000E+00   1.57905106960730E-11   5.88642988745501E-34
      1.57905106960730E-11   4.84258440501577E-18
      4.61893333333333E-03
      0.00000000000000E+00   4.30430041463119E-12   0.00000000000000E+00   0.00000000000000E+00  -2.20852539478994E-11
      5.80458646438379E-34  -2.20852539478994E-11   5.67996833961780E-18   0.00000000000000E+00   0.00000000000000E+00
      0.00000000000000E+00   0.00000000000000E+00   0.00000000000000E+00   0.00000000000000E+00   0.00000000000000E+00
      4.57652228069663E-18   0.00000000000000E+00   0.00000000000000E+00   0.00000000000000E+00   0.00000000000000E+00
     -1.54174504180503E-19  -1.14364718829581E-33  -1.54174504180504E-19  -1.50999249027573E-17   2.30946666666667E-04
      2.30946662344599E-04   0.00000000000000E+00   0.00000000000000E+00   2.20852541020739E-11   5.63188541857434E-34
      2.20852541020739E-11   4.84343428244287E-18
      6.07416000000000E-03
      0.00000000000000E+00   5.64808795256351E-12   0.00000000000000E+00   0.00000000000000E+00  -2.89801491471022E-11
      5.54673022080192E-34  -2.89801491471022E-11   5.67994318818977E-18   0.00000000000000E+00   0.00000000000000E+00
      0.00000000000000E+00   0.00000000000000E+00   0.00000000000000E+00   0.00000000000000E+00   0.00000000000000E+00
      4.57557495195747E-18   0.00000000000000E+00   0.00000000000000E+00   0.00000000000000E+00   0.00000000000000E+00
      9.09151843734768E-20  -1.12084925009359E-33   9.09151843734757E-20  -1.50998873127837E-17   3.03708000000000E-04
      3.03707994328610E-04   0.00000000000000E+00   0.00000000000000E+00   2.89801490561870E-11   5.66176228013399E-34
      2.89801490561870E-11   4.84436917263646E-18
      7.67490933333333E-03
      0.00000000000000E+00   7.11929448969844E-12   0.00000000000000E+00   0.00000000000000E+00  -3.65287122760667E-11
      5.67106565685925E-34  -3.65287122760667E-11   5.67991552198799E-18   0.00000000000000E+00   0.00000000000000E+00
      0.00000000000000E+00   0.00000000000000E+00   0.00000000000000E+00   0.00000000000000E+00   0.00000000000000E+00
      4.57453290911943E-18   0.00000000000000E+00   0.00000000000000E+00   0.00000000000000E+00   0.00000000000000E+00
      1.15144288412923E-19  -1.14513232850068E-33   1.15144288412922E-19  -1.50998460132123E-17   3.83745466666667E-04
      3.83745459518009E-04   0.00000000000000E+00   0.00000000000000E+00   3.65287121609224E-11   5.78025762814760E-34
      3.65287121609224E-11   4.84539758210484E-18
      9.43573360000000E-03
      0.00000000000000E+00   8.72911550017665E-12   0.00000000000000E+00   0.00000000000000E+00  -4.47884732601197E-11
      5.56887464812209E-34  -4.47884732601197E-11   5.67988508961262E-18   0.00000000000000E+00   0.00000000000000E+00
      0.00000000000000E+00   0.00000000000000E+00   0.00000000000000E+00   0.00000000000000E+00   0.00000000000000E+00
      4.57338668468573E-18   0.00000000000000E+00   0.00000000000000E+00   0.00000000000000E+00   0.00000000000000E+00
      5.10640039791751E-20  -1.11068666025916E-33   5.10640039791740E-20  -1.50998006433968E-17   4.71786680000000E-04
      4.71786671234890E-04   0.00000000000000E+00   0.00000000000000E+00   4.47884732090556E-11   5.53799195446955E-34
      4.47884732090556E-11   4.84652886909842E-18
      1.13726402933333E-02
      0.00000000000000E+00   1.04895842418721E-11   0.00000000000000E+00   0.00000000000000E+00  -5.38210975849901E-11
      5.36959061439772E-34  -5.38210975849901E-11   5.67985161453992E-18   0.00000000000000E+00   0.00000000000000E+00
      0.00000000000000E+00   0.00000000000000E+00   0.00000000000000E+00   0.00000000000000E+00   0.00000000000000E+00
      4.57212586522188E-18   0.00000000000000E+00   0.00000000000000E+00   0.00000000000000E+00   0.00000000000000E+00
      1.47706138032546E-19  -1.11055777632063E-33   1.47706138032545E-19  -1.50997508087723E-17   5.68632014666667E-04
      5.68632004133840E-04   0.00000000000000E+00   0.00000000000000E+00   5.38210974372839E-11   5.73598714880854E-34
      5.38210974372839E-11   4.84777332901049E-18
      1.35032376560000E-02
      0.00000000000000E+00   1.24135430049960E-11   0.00000000000000E+00   0.00000000000000E+00  -6.36924665083295E-11
      5.60018200787267E-34  -6.36924665083295E-11   5.67981479261328E-18   0.00000000000000E+00   0.00000000000000E+00
      0.00000000000000E+00   0.00000000000000E+00   0.00000000000000E+00   0.00000000000000E+00   0.00000000000000E+00
      4.57073899692938E-18   0.00000000000000E+00   0.00000000000000E+00   0.00000000000000E+00   0.00000000000000E+00
      1.20250014005667E-19  -1.12207080045792E-33   1.20250014005666E-19  -1.50996960779079E-17   6.75161882800000E-04
      6.75161870335300E-04   0.00000000000000E+00   0.00000000000000E+00   6.36924663880795E-11   5.62052599670654E-34
      6.36924663880795E-11   4.84914228836520E-18
      1.58468947549333E-02
      0.00000000000000E+00   1.45146702661933E-11   0.00000000000000E+00   0.00000000000000E+00  -7.44727068892631E-11
      5.45682285501388E-34  -7.44727068892631E-11   5.67977428928387E-18   0.00000000000000E+00   0.00000000000000E+00
      0.00000000000000E+00   0.00000000000000E+00   0.00000000000000E+00   0.00000000000000E+00   0.00000000000000E+00
      4.56921348181064E-18   0.00000000000000E+00   0.00000000000000E+00   0.00000000000000E+00   0.00000000000000E+00
      7.12256095263809E-21  -1.07188627464654E-33   7.12256095263702E-21  -1.50996359793549E-17   7.92344737746667E-04
      7.92344723172203E-04   0.00000000000000E+00   0.00000000000000E+00   7.44727068821405E-11   5.26203989145147E-34
      7.44727068821405E-11   4.85064820826041E-18
      1.84249175637600E-02
      0.00000000000000E+00   1.68074583263453E-11   0.00000000000000E+00   0.00000000000000E+00  -8.62361478170403E-11
      5.47744680215877E-34  -8.62361478170403E-11   5.67972973657631E-18   0.00000000000000E+00   0.00000000000000E+00
      0.00000000000000E+00   0.00000000000000E+00   0.00000000000000E+00   0.00000000000000E+00   0.00000000000000E+00
      4.56753546349244E-18   0.00000000000000E+00   0.00000000000000E+00   0.00000000000000E+00   0.00000000000000E+00
      1.70006002597494E-19  -1.12524811429037E-33   1.70006002597493E-19  -1.50995699982921E-17   9.21245878188001E-04
      9.21245861311320E-04   0.00000000000000E+00   0.00000000000000E+00   8.62361476470343E-11   5.77503434074490E-34
      8.62361476470343E-11   4.85230479822330E-18
      2.12607426534693E-02
      0.00000000000000E+00   1.93071941429729E-11   0.00000000000000E+00   0.00000000000000E+00  -9.90611876569560E-11
      5.86868384485778E-34  -9.90611876569560E-11   5.67968072975172E-18   0.00000000000000E+00   0.00000000000000E+00
      0.00000000000000E+00   0.00000000000000E+00   0.00000000000000E+00   0.00000000000000E+00   0.00000000000000E+00
      4.56568970167868E-18   0.00000000000000E+00   0.00000000000000E+00   0.00000000000000E+00   0.00000000000000E+00
      4.39520589264943E-19  -1.15051047292202E-33   4.39520589264942E-19  -1.50994975729624E-17   1.06303713267347E-03
      1.06303711328679E-03   0.00000000000000E+00   0.00000000000000E+00   9.90611872174354E-11   5.63642088436246E-34
      9.90611872174354E-11   4.85412714153197E-18
      2.43801502521496E-02
      0.00000000000000E+00   2.20299162031421E-11   0.00000000000000E+00   0.00000000000000E+00  -1.13030055666169E-10
      5.59697904535669E-34  -1.13030055666169E-10   5.67962682363828E-18   0.00000000000000E+00   0.00000000000000E+00
      0.00000000000000E+00   0.00000000000000E+00   0.00000000000000E+00   0.00000000000000E+00   0.00000000000000E+00
      4.56365943410676E-18   0.00000000000000E+00   0.00000000000000E+00   0.00000000000000E+00   0.00000000000000E+00
      1.93538936373095E-19  -1.10508496458661E-33   1.93538936373093E-19  -1.50994180909129E-17   1.21900751260748E-03
      1.21900749048690E-03   0.00000000000000E+00   0.00000000000000E+00   1.13030055472630E-10   5.45387060050943E-34
      1.13030055472630E-10   4.85613183316794E-18
      2.78114986106979E-02
      0.00000000000000E+00   2.49923530274230E-11   0.00000000000000E+00   0.00000000000000E+00  -1.28228419477540E-10
      5.65913305400166E-34  -1.28228419477540E-10   5.67956752859651E-18   0.00000000000000E+00   0.00000000000000E+00
      0.00000000000000E+00   0.00000000000000E+00   0.00000000000000E+00   0.00000000000000E+00   0.00000000000000E+00
      4.56142622477601E-18   0.00000000000000E+00   0.00000000000000E+00   0.00000000000000E+00   0.00000000000000E+00
      8.91812697304095E-19  -1.14141035447228E-33   8.91812697304094E-19  -1.50993308850562E-17   1.39057493053490E-03
      1.39057490543973E-03   0.00000000000000E+00   0.00000000000000E+00   1.28228418585728E-10   5.75497049072111E-34
      1.28228418585728E-10   4.85833713168362E-18
      3.15859818051010E-02
      0.00000000000000E+00   2.82117650372115E-11   0.00000000000000E+00   0.00000000000000E+00  -1.44744831384957E-10
      5.78579068201726E-34  -1.44744831384957E-10   5.67950230608226E-18   0.00000000000000E+00   0.00000000000000E+00
      0.00000000000000E+00   0.00000000000000E+00   0.00000000000000E+00   0.00000000000000E+00   0.00000000000000E+00
      4.55896979707606E-18   0.00000000000000E+00   0.00000000000000E+00   0.00000000000000E+00   0.00000000000000E+00
      1.46821085539000E-18  -1.12574767877132E-33   1.46821085539000E-18  -1.50992352295543E-17   1.57929909025505E-03
      1.57929906192728E-03   0.00000000000000E+00   0.00000000000000E+00   1.44744829916746E-10   5.47168610569594E-34
      1.44744829916746E-10   4.86076312639601E-18
      3.57379133189445E-02
      0.00000000000000E+00   3.17058447234932E-11   0.00000000000000E+00   0.00000000000000E+00  -1.62669979289005E-10
      5.78290769005244E-34  -1.62669979289005E-10   5.67943056376830E-18   0.00000000000000E+00   0.00000000000000E+00
      0.00000000000000E+00   0.00000000000000E+00   0.00000000000000E+00   0.00000000000000E+00   0.00000000000000E+00
      4.55626785032822E-18   0.00000000000000E+00   0.00000000000000E+00   0.00000000000000E+00   0.00000000000000E+00
      2.25604397279382E-18  -1.11340003234852E-33   2.25604397279382E-18  -1.50991303355659E-17   1.78689566594722E-03
      1.78689563411105E-03   0.00000000000000E+00   0.00000000000000E+00   1.62669977032961E-10   5.35109263343273E-34
      1.62669977032961E-10   4.86343192146934E-18
      4.03050379841723E-02
      0.00000000000000E+00   3.54925305614196E-11   0.00000000000000E+00   0.00000000000000E+00  -1.82095670337925E-10
      5.64552960850174E-34  -1.82095670337925E-10   5.67935165018034E-18   0.00000000000000E+00   0.00000000000000E+00
      0.00000000000000E+00   0.00000000000000E+00   0.00000000000000E+00   0.00000000000000E+00   0.00000000000000E+00
      4.55329585810759E-18   0.00000000000000E+00   0.00000000000000E+00   0.00000000000000E+00   0.00000000000000E+00
      2.57782133708717E-18  -1.13036239289060E-33   2.57782133708717E-18  -1.50990153469007E-17   2.01525189920861E-03
      2.01525186357027E-03   0.00000000000000E+00   0.00000000000000E+00   1.82095667760103E-10   5.65809432040427E-34
      1.82095667760103E-10   4.86636783861279E-18
      4.53288751159228E-02
      0.00000000000000E+00   3.95897210936478E-11   0.00000000000000E+00   0.00000000000000E+00  -2.03113547350083E-10
      5.75801662852868E-34  -2.03113547350083E-10   5.67926484879946E-18   0.00000000000000E+00   0.00000000000000E+00
      0.00000000000000E+00   0.00000000000000E+00   0.00000000000000E+00   0.00000000000000E+00   0.00000000000000E+00
      4.55002684653482E-18   0.00000000000000E+00   0.00000000000000E+00   0.00000000000000E+00   0.00000000000000E+00
      4.61379901764703E-18  -1.11812577301340E-33   4.61379901764702E-18  -1.50988893356245E-17   2.26644375579614E-03
      2.26644371604387E-03   0.00000000000000E+00   0.00000000000000E+00   2.03113542736284E-10   5.42324110160534E-34
      2.03113542736284E-10   4.86959764029025E-18
      5.08550959608485E-02
      0.00000000000000E+00   4.40149490811858E-11   0.00000000000000E+00   0.00000000000000E+00  -2.25813451825486E-10
      5.69779511055923E-34  -2.25813451825486E-10   5.67916937157793E-18   0.00000000000000E+00   0.00000000000000E+00
      0.00000000000000E+00   0.00000000000000E+00   0.00000000000000E+00   0.00000000000000E+00   0.00000000000000E+00
      4.54643115056961E-18   0.00000000000000E+00   0.00000000000000E+00   0.00000000000000E+00   0.00000000000000E+00
      6.74934237504959E-18  -1.10959716434346E-33   6.74934237504959E-18  -1.50987512976918E-17   2.54275479804242E-03
      2.54275475384686E-03   0.00000000000000E+00   0.00000000000000E+00   2.25813445076144E-10   5.39817653287537E-34
      2.25813445076144E-10   4.87315077554427E-18
      5.69339388902666E-02
      0.00000000000000E+00   4.87850316947411E-11   0.00000000000000E+00   0.00000000000000E+00  -2.50281429051157E-10
      5.31613838164630E-34  -2.50281429051157E-10   5.67906435181082E-18   0.00000000000000E+00   0.00000000000000E+00
      0.00000000000000E+00   0.00000000000000E+00   0.00000000000000E+00   0.00000000000000E+00   0.00000000000000E+00
      4.54247614613149E-18   0.00000000000000E+00   0.00000000000000E+00   0.00000000000000E+00   0.00000000000000E+00
      9.99433386810032E-18  -1.04396433719465E-33   9.99433386810031E-18  -1.50986001486939E-17   2.84669694451333E-03
      2.84669689552823E-03   0.00000000000000E+00   0.00000000000000E+00   2.50281419056823E-10   5.12350499030020E-34
      2.50281419056823E-10   4.87705965075162E-18
      6.36206661126266E-02
      0.00000000000000E+00   5.39155873315384E-11   0.00000000000000E+00   0.00000000000000E+00  -2.76597314450800E-10
      5.70165316509638E-34  -2.76597314450800E-10   5.67894883629862E-18   0.00000000000000E+00   0.00000000000000E+00
      0.00000000000000E+00   0.00000000000000E+00   0.00000000000000E+00   0.00000000000000E+00   0.00000000000000E+00
      4.53812595566207E-18   0.00000000000000E+00   0.00000000000000E+00   0.00000000000000E+00   0.00000000000000E+00
      1.51664145370914E-17  -1.08552610711087E-33   1.51664145370914E-17  -1.50984347198292E-17   3.18103330563133E-03
      3.18103325149478E-03   0.00000000000000E+00   0.00000000000000E+00   2.76597299284385E-10   5.15360790601233E-34
      2.76597299284385E-10   4.88135992786847E-18
      7.09760660572226E-02
      0.00000000000000E+00   5.94204605873994E-11   0.00000000000000E+00   0.00000000000000E+00  -3.04831799070077E-10
      5.72495975520762E-34  -3.04831799070077E-10   5.67882177673245E-18   0.00000000000000E+00   0.00000000000000E+00
      0.00000000000000E+00   0.00000000000000E+00   0.00000000000000E+00   0.00000000000000E+00   0.00000000000000E+00
      4.53334112454555E-18   0.00000000000000E+00   0.00000000000000E+00   0.00000000000000E+00   0.00000000000000E+00
      2.19938928905336E-17  -1.08576881861633E-33   2.19938928905336E-17  -1.50982537542816E-17   3.54880330286113E-03
      3.54880324319732E-03   0.00000000000000E+00   0.00000000000000E+00   3.04831777076184E-10   5.13272843095565E-34
      3.04831777076184E-10   4.88609085300365E-18
      7.90670059962782E-02
      0.00000000000000E+00   6.53110354178384E-11   0.00000000000000E+00   0.00000000000000E+00  -3.35043026850760E-10
      5.58288008461234E-34  -3.35043026850760E-10   5.67868202022326E-18   0.00000000000000E+00   0.00000000000000E+00
      0.00000000000000E+00   0.00000000000000E+00   0.00000000000000E+00   0.00000000000000E+00   0.00000000000000E+00
      4.52807826548392E-18   0.00000000000000E+00   0.00000000000000E+00   0.00000000000000E+00   0.00000000000000E+00
      3.19057737146786E-17  -1.06460122832729E-33   3.19057737146786E-17  -1.50980559041427E-17   3.95335029981391E-03
      3.95335023423561E-03   0.00000000000000E+00   0.00000000000000E+00   3.35042994944986E-10   5.06313219866058E-34
      3.35042994944986E-10   4.89129561843554E-18
      8.79670399292394E-02
      0.00000000000000E+00   7.15955339234604E-11   0.00000000000000E+00   0.00000000000000E+00  -3.67272644621431E-10
      5.70745950628266E-34  -3.67272644621431E-10   5.67852829889151E-18   0.00000000000000E+00   0.00000000000000E+00
      0.00000000000000E+00   0.00000000000000E+00   0.00000000000000E+00   0.00000000000000E+00   0.00000000000000E+00
      4.52228966770315E-18   0.00000000000000E+00   0.00000000000000E+00   0.00000000000000E+00   0.00000000000000E+00
      4.61783587038692E-17  -1.08088874214506E-33   4.61783587038692E-17  -1.50978397281310E-17   4.39835199646197E-03
      4.39835192457369E-03   0.00000000000000E+00   0.00000000000000E+00   3.67272598443072E-10   5.10142791516792E-34
      3.67272598443072E-10   4.89702176153635E-18
      9.77570772554967E-02
      0.00000000000000E+00   7.82780427957459E-11   0.00000000000000E+00   0.00000000000000E+00  -4.01541311767319E-10
      5.37411824280677E-34  -4.01541311767319E-10   5.67835921842423E-18   0.00000000000000E+00   0.00000000000000E+00
      0.00000000000000E+00   0.00000000000000E+00   0.00000000000000E+00   0.00000000000000E+00   0.00000000000000E+00
      4.51592286753534E-18   0.00000000000000E+00   0.00000000000000E+00   0.00000000000000E+00   0.00000000000000E+00
      6.71205317452129E-17  -1.06044514814479E-33   6.71205317452129E-17  -1.50976036903822E-17   4.88785386277484E-03
      4.88785378417699E-03   0.00000000000000E+00   0.00000000000000E+00   4.01541244646787E-10   5.23033323864114E-34
      4.01541244646787E-10   4.90332160442263E-18
      1.07757077255497E-01
      0.00000000000000E+00   8.48613114328540E-11   0.00000000000000E+00   0.00000000000000E+00  -4.35298728532026E-10
      5.57972045672381E-34  -4.35298728532026E-10   5.67818652569755E-18   0.00000000000000E+00   0.00000000000000E+00
      0.00000000000000E+00   0.00000000000000E+00   0.00000000000000E+00   0.00000000000000E+00   0.00000000000000E+00
      4.50942022696937E-18   0.00000000000000E+00   0.00000000000000E+00   0.00000000000000E+00   0.00000000000000E+00
      7.77101797322295E-17  -1.06497421397248E-33   7.77101797322295E-17  -1.50973644783428E-17   5.38785386277483E-03
      5.38785377756714E-03   0.00000000000000E+00   0.00000000000000E+00   4.35298650821846E-10   5.07002168300098E-34
      4.35298650821846E-10   4.90975772567582E-18
      1.17757077255497E-01
      0.00000000000000E+00   9.12064122906850E-11   0.00000000000000E+00   0.00000000000000E+00  -4.67832713456950E-10
      5.50133457729576E-34  -4.67832713456950E-10   5.67801384692604E-18   0.00000000000000E+00   0.00000000000000E+00
      0.00000000000000E+00   0.00000000000000E+00   0.00000000000000E+00   0.00000000000000E+00   0.00000000000000E+00
      4.50291829385642E-18   0.00000000000000E+00   0.00000000000000E+00   0.00000000000000E+00   0.00000000000000E+00
      7.83667918244853E-17  -9.98039102354920E-34   7.83667918244853E-17  -1.50971271626078E-17   5.88785386277483E-03
      5.88785377119645E-03   0.00000000000000E+00   0.00000000000000E+00   4.67832635090158E-10   4.47905644625344E-34
      4.67832635090158E-10   4.91619502182532E-18
      1.27757077255497E-01
      0.00000000000000E+00   9.73203351530653E-11   0.00000000000000E+00   0.00000000000000E+00  -4.99179323076464E-10
      5.61659643505096E-34  -4.99179323076464E-10   5.67784118198018E-18   0.00000000000000E+00   0.00000000000000E+00
      0.00000000000000E+00   0.00000000000000E+00   0.00000000000000E+00   0.00000000000000E+00   0.00000000000000E+00
      4.49641706257427E-18   0.00000000000000E+00   0.00000000000000E+00   0.00000000000000E+00   0.00000000000000E+00
      7.66398357520889E-17  -1.02875750972253E-33   7.66398357520889E-17  -1.50968917315432E-17   6.38785386277483E-03
      6.38785376505790E-03   0.00000000000000E+00   0.00000000000000E+00   4.99179246436628E-10   4.67097866217430E-34
      4.99179246436628E-10   4.92263348698870E-18
      1.37757077255497E-01
      0.00000000000000E+00   1.03210021086178E-10   0.00000000000000E+00   0.00000000000000E+00  -5.29374256296847E-10
      5.70544643957756E-34  -5.29374256296847E-10   5.67766853073073E-18   0.00000000000000E+00   0.00000000000000E+00
      0.00000000000000E+00   0.00000000000000E+00   0.00000000000000E+00   0.00000000000000E+00   0.00000000000000E+00
      4.48991652756027E-18   0.00000000000000E+00   0.00000000000000E+00   0.00000000000000E+00   0.00000000000000E+00
      7.57299069447574E-17  -1.02394959826284E-33   7.57299069447574E-17  -1.50966581736145E-17   6.88785386277483E-03
      6.88785375914453E-03   0.00000000000000E+00   0.00000000000000E+00   5.29374180566940E-10   4.53404954305088E-34
      5.29374180566940E-10   4.92907311532348E-18
      1.47757077255497E-01
      0.00000000000000E+00   1.08882312922270E-10   0.00000000000000E+00   0.00000000000000E+00  -5.58452758889242E-10
      5.76300100334647E-34  -5.58452758889242E-10   5.67749589304853E-18   0.00000000000000E+00   0.00000000000000E+00
      0.00000000000000E+00   0.00000000000000E+00   0.00000000000000E+00   0.00000000000000E+00   0.00000000000000E+00
      4.48341668329822E-18   0.00000000000000E+00   0.00000000000000E+00   0.00000000000000E+00   0.00000000000000E+00
      6.10562145808865E-17  -1.01738235014118E-33   6.10562145808865E-17  -1.50964264773681E-17   7.38785386277483E-03
      7.38785375344946E-03   0.00000000000000E+00   0.00000000000000E+00   5.58452697833028E-10   4.41082249806530E-34
      5.58452697833028E-10   4.93551390102131E-18
      1.57757077255497E-01
      0.00000000000000E+00   1.14343916125808E-10   0.00000000000000E+00   0.00000000000000E+00  -5.86449529163652E-10
      5.66544092974629E-34  -5.86449529163652E-10   5.67732326880479E-18   0.00000000000000E+00   0.00000000000000E+00
      0.00000000000000E+00   0.00000000000000E+00   0.00000000000000E+00   0.00000000000000E+00   0.00000000000000E+00
      4.47691752431546E-18   0.00000000000000E+00   0.00000000000000E+00   0.00000000000000E+00   0.00000000000000E+00
      7.38535774615936E-17  -9.99082199799618E-34   7.38535774615936E-17  -1.50961966314232E-17   7.88785386277484E-03
      7.88785374796594E-03   0.00000000000000E+00   0.00000000000000E+00   5.86449455310074E-10   4.32538106824989E-34
      5.86449455310074E-10   4.94195583830299E-18
      1.67757077255497E-01
      0.00000000000000E+00   1.19601497826063E-10   0.00000000000000E+00   0.00000000000000E+00  -6.13398720813255E-10
      5.39900313326690E-34  -6.13398720813255E-10   5.67715065787040E-18   0.00000000000000E+00   0.00000000000000E+00
      0.00000000000000E+00   0.00000000000000E+00   0.00000000000000E+00   0.00000000000000E+00   0.00000000000000E+00
      4.47041904515296E-18   0.00000000000000E+00   0.00000000000000E+00   0.00000000000000E+00   0.00000000000000E+00
      6.53917979745884E-17  -9.89053645965796E-34   6.53917979745884E-17  -1.50959686244356E-17   8.38785386277484E-03
      8.38785374268731E-03   0.00000000000000E+00   0.00000000000000E+00   6.13398655421457E-10   4.49153332639107E-34
      6.13398655421457E-10   4.94839892141218E-18
      1.77757077255497E-01
      0.00000000000000E+00   1.24661516704685E-10   0.00000000000000E+00   0.00000000000000E+00  -6.39333755195098E-10
      5.36368828397209E-34  -6.39333755195098E-10   5.67697806011717E-18   0.00000000000000E+00   0.00000000000000E+00
      0.00000000000000E+00   0.00000000000000E+00   0.00000000000000E+00   0.00000000000000E+00   0.00000000000000E+00
      4.46392124041729E-18   0.00000000000000E+00   0.00000000000000E+00   0.00000000000000E+00   0.00000000000000E+00
     -2.69032559969916E-19  -9.65997826755818E-34  -2.69032559969916E-19  -1.50957424451684E-17   8.88785386277484E-03
      8.88785373760704E-03   0.00000000000000E+00   0.00000000000000E+00   6.39333755464131E-10   4.29628998358608E-34
      6.39333755464131E-10   4.95484314463401E-18
      1.87757077255497E-01
      0.00000000000000E+00   1.29530289283644E-10   0.00000000000000E+00   0.00000000000000E+00  -6.64287522975089E-10
      5.56174108706778E-34  -6.64287522975089E-10   5.67680547541757E-18   0.00000000000000E+00   0.00000000000000E+00
      0.00000000000000E+00   0.00000000000000E+00   0.00000000000000E+00   0.00000000000000E+00   0.00000000000000E+00
      4.45742410476643E-18   0.00000000000000E+00   0.00000000000000E+00   0.00000000000000E+00   0.00000000000000E+00
      6.39188036324705E-17  -9.88246399691486E-34   6.39188036324705E-17  -1.50955180824726E-17   9.38785386277484E-03
      9.38785373271875E-03   0.00000000000000E+00   0.00000000000000E+00   6.64287459056285E-10   4.32072290984708E-34
      6.64287459056285E-10   4.96128850228856E-18
      1.97757077255497E-01
      0.00000000000000E+00   1.34214167225506E-10   0.00000000000000E+00   0.00000000000000E+00  -6.88291962419122E-10