DF-ISE text

Info {
  version   = 1.0
  type      = xyplot
  datasets  = [
    "time"
    "source OuterVoltage" "source InnerVoltage" "source QuasiFermiPotential" "source DisplacementCurrent" "source eCurrent"
    "source hCurrent" "source TotalCurrent" "source Charge" "gate OuterVoltage" "gate InnerVoltage"
    "gate QuasiFermiPotential" "gate DisplacementCurrent" "gate eCurrent" "gate hCurrent" "gate TotalCurrent"
    "gate Charge" "substrate OuterVoltage" "substrate InnerVoltage" "substrate QuasiFermiPotential" "substrate DisplacementCurrent"
    "substrate eCurrent" "substrate hCurrent" "substrate TotalCurrent" "substrate Charge" "drain OuterVoltage"
    "drain InnerVoltage" "drain QuasiFermiPotential" "drain DisplacementCurrent" "drain eCurrent" "drain hCurrent"
    "drain TotalCurrent" "drain Charge" ]
  functions = [
    Time
    OuterVoltage InnerVoltage QuasiFermiPotential DisplacementCurrent eCurrent
    hCurrent TotalCurrent Charge OuterVoltage InnerVoltage
    QuasiFermiPotential DisplacementCurrent eCurrent hCurrent TotalCurrent
    Charge OuterVoltage InnerVoltage QuasiFermiPotential DisplacementCurrent
    eCurrent hCurrent TotalCurrent Charge OuterVoltage
    InnerVoltage QuasiFermiPotential DisplacementCurrent eCurrent hCurrent
    TotalCurrent Charge ]
}

Data {
      0.00000000000000E+00
      0.00000000000000E+00   0.00000000000000E+00   0.00000000000000E+00   0.00000000000000E+00  -1.01280497111813E-20
     -1.46472462259336E-34  -1.01280497111814E-20   4.18419089165787E-18   0.00000000000000E+00   0.00000000000000E+00
      0.00000000000000E+00   0.00000000000000E+00   0.00000000000000E+00   0.00000000000000E+00   0.00000000000000E+00
      1.39213405680520E-18   0.00000000000000E+00   0.00000000000000E+00   0.00000000000000E+00   0.00000000000000E+00
      1.99772577867169E-20   2.87876619606962E-34   1.99772577867172E-20  -9.43653851275206E-18   0.00000000000000E+00
      0.00000000000000E+00   0.00000000000000E+00   0.00000000000000E+00  -9.84920807553563E-21  -1.41404157347627E-34
     -9.84920807553577E-21   3.86021356428898E-18
      0.00000000000000E+00
      0.00000000000000E+00   0.00000000000000E+00   0.00000000000000E+00   0.00000000000000E+00  -2.79995782322111E-20
     -1.29628528788624E-34  -2.79995782322112E-20   4.18271969063696E-18   0.00000000000000E+00   0.00000000000000E+00
      0.00000000000000E+00   0.00000000000000E+00   0.00000000000000E+00   0.00000000000000E+00   0.00000000000000E+00
      1.38757826192377E-18   0.00000000000000E+00   0.00000000000000E+00   0.00000000000000E+00   0.00000000000000E+00
      3.38641259066850E-20   2.71981548471036E-34   3.38641259066853E-20  -9.42928064799376E-18   0.00000000000000E+00
      0.00000000000000E+00   0.00000000000000E+00   0.00000000000000E+00  -5.86454767447390E-21  -1.42353019682412E-34
     -5.86454767447404E-21   3.85898269543300E-18
      1.00000000000000E-03
      0.00000000000000E+00   8.60469195869574E-11   0.00000000000000E+00   0.00000000000000E+00  -3.74559287599226E-10
     -1.02732377898604E-34  -3.74559287599226E-10   4.18232252328905E-18   0.00000000000000E+00   0.00000000000000E+00
      0.00000000000000E+00   0.00000000000000E+00   0.00000000000000E+00   0.00000000000000E+00   0.00000000000000E+00
      1.37712102285560E-18   0.00000000000000E+00   0.00000000000000E+00   0.00000000000000E+00   0.00000000000000E+00
      3.45975245324163E-19   2.45413148133138E-34   3.45975245324163E-19  -9.42858482997105E-18   8.60000000000000E-04
      8.59999913748307E-04   0.00000000000000E+00   0.00000000000000E+00   3.74559287253251E-10  -1.42680770234534E-34
      3.74559287253251E-10   3.86914128382642E-18
      2.08666666666667E-03
      0.00000000000000E+00   1.73543951896556E-10   0.00000000000000E+00   0.00000000000000E+00  -7.55407135353523E-10
     -1.24832656426524E-34  -7.55407135353523E-10   4.18189108379030E-18   0.00000000000000E+00   0.00000000000000E+00
      0.00000000000000E+00   0.00000000000000E+00   0.00000000000000E+00   0.00000000000000E+00   0.00000000000000E+00
      1.36576079525549E-18   0.00000000000000E+00   0.00000000000000E+00   0.00000000000000E+00   0.00000000000000E+00
      4.37390484687209E-20   2.56772366205491E-34   4.37390484687212E-20  -9.42783684541102E-18   1.79453333333333E-03
      1.79453315937727E-03   0.00000000000000E+00   0.00000000000000E+00   7.55407135309785E-10  -1.31939709778966E-34
      7.55407135309785E-10   3.88018496636526E-18
      3.27475555555556E-03
      0.00000000000000E+00   2.62171919028127E-10   0.00000000000000E+00   0.00000000000000E+00  -1.14114620395307E-09
     -1.26074514016574E-34  -1.14114620395307E-09   4.18141955297579E-18   0.00000000000000E+00   0.00000000000000E+00
      0.00000000000000E+00   0.00000000000000E+00   0.00000000000000E+00   0.00000000000000E+00   0.00000000000000E+00
      1.35334416525173E-18   0.00000000000000E+00   0.00000000000000E+00   0.00000000000000E+00   0.00000000000000E+00
     -4.49397147690989E-20   2.63960103413678E-34  -4.49397147690986E-20  -9.42702864144733E-18   2.81628977777778E-03
      2.81628951498452E-03   0.00000000000000E+00   0.00000000000000E+00   1.14114620399801E-09  -1.37885589397104E-34
      1.14114620399801E-09   3.89226492321982E-18
      4.57373274074074E-03
      0.00000000000000E+00   3.51067749591875E-10   0.00000000000000E+00   0.00000000000000E+00  -1.52801531554636E-09
     -1.02595197124631E-34  -1.52801531554636E-09   4.18090422081258E-18   0.00000000000000E+00   0.00000000000000E+00
      0.00000000000000E+00   0.00000000000000E+00   0.00000000000000E+00   0.00000000000000E+00   0.00000000000000E+00
      1.33977322499405E-18   0.00000000000000E+00   0.00000000000000E+00   0.00000000000000E+00   0.00000000000000E+00
      5.54216978297834E-20   2.16464123868270E-34   5.54216978297836E-20  -9.42615633514747E-18   3.93341015703704E-03
      3.93340980513894E-03   0.00000000000000E+00   0.00000000000000E+00   1.52801531549094E-09  -1.13868926743639E-34
      1.52801531549094E-09   3.90547888934081E-18
      5.99394779654321E-03
      0.00000000000000E+00   4.39315665526064E-10   0.00000000000000E+00   0.00000000000000E+00  -1.91202733579277E-09
     -1.32692693677725E-34  -1.91202733579277E-09   4.18034103587843E-18   0.00000000000000E+00   0.00000000000000E+00
      0.00000000000000E+00   0.00000000000000E+00   0.00000000000000E+00   0.00000000000000E+00   0.00000000000000E+00
      1.32494104345298E-18   0.00000000000000E+00   0.00000000000000E+00   0.00000000000000E+00   0.00000000000000E+00
     -2.63898768395862E-19   2.51644678110445E-34  -2.63898768395862E-19  -9.42521598130238E-18   5.15479510502716E-03
      5.15479466467441E-03   0.00000000000000E+00   0.00000000000000E+00   1.91202733605667E-09  -1.18951984432720E-34
      1.91202733605667E-09   3.91993390197099E-18
      7.54671625755391E-03
      0.00000000000000E+00   5.25950168794856E-10   0.00000000000000E+00   0.00000000000000E+00  -2.28898166156132E-09
     -1.21986928855821E-34  -2.28898166156132E-09   4.17972557419041E-18   0.00000000000000E+00   0.00000000000000E+00
      0.00000000000000E+00   0.00000000000000E+00   0.00000000000000E+00   0.00000000000000E+00   0.00000000000000E+00
      1.30873084090977E-18   0.00000000000000E+00   0.00000000000000E+00   0.00000000000000E+00   0.00000000000000E+00
     -8.38883910480810E-20   2.24482920988223E-34  -8.38883910480807E-20  -9.42420361372671E-18   6.49017598149636E-03
      6.49017545430695E-03   0.00000000000000E+00   0.00000000000000E+00   2.28898166164521E-09  -1.02495992132402E-34
      2.28898166164521E-09   3.93574719862655E-18
      9.24440977492561E-03
      0.00000000000000E+00   6.09974464396268E-10   0.00000000000000E+00   0.00000000000000E+00  -2.65454576410334E-09
     -1.27389441450285E-34  -2.65454576410334E-09   4.17905300509491E-18   0.00000000000000E+00   0.00000000000000E+00
      0.00000000000000E+00   0.00000000000000E+00   0.00000000000000E+00   0.00000000000000E+00   0.00000000000000E+00
      1.29101508782378E-18   0.00000000000000E+00   0.00000000000000E+00   0.00000000000000E+00   0.00000000000000E+00
     -4.08012151145897E-20   2.34859143620957E-34  -4.08012151145895E-20  -9.42311529617232E-18   7.95019240643603E-03
      7.95019179502702E-03   0.00000000000000E+00   0.00000000000000E+00   2.65454576414414E-09  -1.07469702170672E-34
      2.65454576414414E-09   3.95304720325363E-18
      1.11005546872520E-02
      0.00000000000000E+00   6.90389186256969E-10   0.00000000000000E+00   0.00000000000000E+00  -3.00438028494411E-09
     -1.36684895738483E-34  -3.00438028494411E-09   4.17831805397926E-18   0.00000000000000E+00   0.00000000000000E+00
      0.00000000000000E+00   0.00000000000000E+00   0.00000000000000E+00   0.00000000000000E+00   0.00000000000000E+00
      1.27165452134308E-18   0.00000000000000E+00   0.00000000000000E+00   0.00000000000000E+00   0.00000000000000E+00
      3.50548116665440E-20   2.32810742276208E-34   3.50548116665442E-20  -9.42194718457880E-18   9.54647703103672E-03
      9.54647633902688E-03   0.00000000000000E+00   0.00000000000000E+00   3.00438028490906E-09  -9.61258465377252E-35
      3.00438028490906E-09   3.97197460925648E-18
      1.31299397913955E-02
      0.00000000000000E+00   7.66229904762813E-10   0.00000000000000E+00   0.00000000000000E+00  -3.33430302326408E-09
     -1.49693460017624E-34  -3.33430302326408E-09   4.17751496147865E-18   0.00000000000000E+00   0.00000000000000E+00
      0.00000000000000E+00   0.00000000000000E+00   0.00000000000000E+00   0.00000000000000E+00   0.00000000000000E+00
      1.25049707150925E-18   0.00000000000000E+00   0.00000000000000E+00   0.00000000000000E+00   0.00000000000000E+00
     -3.03766336142389E-19   2.40827751265567E-34  -3.03766336142389E-19  -9.42069560202376E-18   1.12917482206002E-02
      1.12917474525749E-02   0.00000000000000E+00   0.00000000000000E+00   3.33430302356784E-09  -9.11342912479436E-35
      3.33430302356784E-09   3.99268356903586E-18
      1.53487341719258E-02
      0.00000000000000E+00   8.36613142716064E-10   0.00000000000000E+00   0.00000000000000E+00  -3.64048964969407E-09
     -1.34483201722931E-34  -3.64048964969407E-09   4.17663743876461E-18   0.00000000000000E+00   0.00000000000000E+00
      0.00000000000000E+00   0.00000000000000E+00   0.00000000000000E+00   0.00000000000000E+00   0.00000000000000E+00
      1.22737668689471E-18   0.00000000000000E+00   0.00000000000000E+00   0.00000000000000E+00   0.00000000000000E+00
      8.57411942111246E-20   2.23560477459359E-34   8.57411942111248E-20  -9.41935712534087E-18   1.31999113878562E-02
      1.31999105492865E-02   0.00000000000000E+00   0.00000000000000E+00   3.64048964960833E-09  -8.90772757364276E-35
      3.64048964960833E-09   4.01534299968155E-18
      1.77746160279722E-02
      0.00000000000000E+00   9.00788898899164E-10   0.00000000000000E+00   0.00000000000000E+00  -3.91970215426767E-09
     -1.25161069317721E-34  -3.91970215426767E-09   4.17567861856019E-18   0.00000000000000E+00   0.00000000000000E+00
      0.00000000000000E+00   0.00000000000000E+00   0.00000000000000E+00   0.00000000000000E+00   0.00000000000000E+00
      1.20211205138486E-18   0.00000000000000E+00   0.00000000000000E+00   0.00000000000000E+00   0.00000000000000E+00
      1.59789649968712E-20   2.04381982640218E-34   1.59789649968714E-20  -9.41792868680091E-18   1.52861697840561E-02
      1.52861688811647E-02   0.00000000000000E+00   0.00000000000000E+00   3.91970215425169E-09  -7.92209133224973E-35
      3.91970215425169E-09   4.04013801685583E-18
      2.04269135239163E-02
      0.00000000000000E+00   9.58197230245812E-10   0.00000000000000E+00   0.00000000000000E+00  -4.16953557418475E-09
     -1.39543397175634E-34  -4.16953557418475E-09   4.17463100141538E-18   0.00000000000000E+00   0.00000000000000E+00
      0.00000000000000E+00   0.00000000000000E+00   0.00000000000000E+00   0.00000000000000E+00   0.00000000000000E+00
      1.17450518110102E-18   0.00000000000000E+00   0.00000000000000E+00   0.00000000000000E+00   0.00000000000000E+00
      1.08406461010768E-19   2.15507335294073E-34   1.08406461010768E-19  -9.41640769150275E-18   1.75671456305680E-02
      1.75671446701389E-02   0.00000000000000E+00   0.00000000000000E+00   4.16953557407634E-09  -7.59639381184383E-35
      4.16953557407634E-09   4.06727150898635E-18
      2.33267587861485E-02
      0.00000000000000E+00   1.00852815146720E-09   0.00000000000000E+00   0.00000000000000E+00  -4.38867818155847E-09
     -1.21732438187226E-34  -4.38867818155847E-09   4.17348639662972E-18   0.00000000000000E+00   0.00000000000000E+00
      0.00000000000000E+00   0.00000000000000E+00   0.00000000000000E+00   0.00000000000000E+00   0.00000000000000E+00
      1.14433988644340E-18   0.00000000000000E+00   0.00000000000000E+00   0.00000000000000E+00   0.00000000000000E+00
     -8.23516699186762E-20   1.89456871958934E-34  -8.23516699186760E-20  -9.41479214728209E-18   2.00610125560877E-02
      2.00610115452160E-02   0.00000000000000E+00   0.00000000000000E+00   4.38867818164082E-09  -6.77244337717080E-35
      4.38867818164082E-09   4.09696586420896E-18
      2.64972562728556E-02
      0.00000000000000E+00   1.05177943503780E-09   0.00000000000000E+00   0.00000000000000E+00  -4.57716204490844E-09
     -1.20345755951308E-34  -4.57716204490844E-09   4.17223585727508E-18   0.00000000000000E+00   0.00000000000000E+00
      0.00000000000000E+00   0.00000000000000E+00   0.00000000000000E+00   0.00000000000000E+00   0.00000000000000E+00
      1.11138008555152E-18   0.00000000000000E+00   0.00000000000000E+00   0.00000000000000E+00   0.00000000000000E+00
     -3.76998713089081E-19   1.81942289852736E-34  -3.76998713089080E-19  -9.41308080750146E-18   2.27876403946559E-02
      2.27876393404397E-02   0.00000000000000E+00   0.00000000000000E+00   4.57716204528544E-09  -6.15965339014281E-35
      4.57716204528544E-09   4.12946486467485E-18
      2.99636668583222E-02
      0.00000000000000E+00   1.08830406702231E-09   0.00000000000000E+00   0.00000000000000E+00  -4.73656827462506E-09
     -1.21654895675455E-34  -4.73656827462506E-09   4.17086960870866E-18   0.00000000000000E+00   0.00000000000000E+00
      0.00000000000000E+00   0.00000000000000E+00   0.00000000000000E+00   0.00000000000000E+00   0.00000000000000E+00
      1.07536795352207E-18   0.00000000000000E+00   0.00000000000000E+00   0.00000000000000E+00   0.00000000000000E+00
     -5.86968140639215E-19   1.76175693872779E-34  -5.86968140639215E-19  -9.41127332591886E-18   2.57687534981571E-02
      2.57687524073416E-02   0.00000000000000E+00   0.00000000000000E+00   4.73656827521203E-09  -5.45207981973239E-35
      4.73656827521203E-09   4.16503576368812E-18
      3.37536090984323E-02
      0.00000000000000E+00   1.11883462836560E-09   0.00000000000000E+00   0.00000000000000E+00  -4.87013188026468E-09
     -1.26261125687184E-34  -4.87013188026468E-09   4.16937696992494E-18   0.00000000000000E+00   0.00000000000000E+00
      0.00000000000000E+00   0.00000000000000E+00   0.00000000000000E+00   0.00000000000000E+00   0.00000000000000E+00
      1.03602189443293E-18   0.00000000000000E+00   0.00000000000000E+00   0.00000000000000E+00   0.00000000000000E+00
     -8.20678479770104E-19   1.76720180478474E-34  -8.20678479770104E-19  -9.40937042612912E-18   2.90281038246517E-02
      2.90281027032518E-02   0.00000000000000E+00   0.00000000000000E+00   4.87013188108536E-09  -5.04590547912894E-35
      4.87013188108536E-09   4.20397156177130E-18
      3.78972792809526E-02
      0.00000000000000E+00   1.14448735756910E-09   0.00000000000000E+00   0.00000000000000E+00  -4.98275343544920E-09
     -1.22601855243515E-34  -4.98275343544920E-09   4.16774626679240E-18   0.00000000000000E+00   0.00000000000000E+00
      0.00000000000000E+00   0.00000000000000E+00   0.00000000000000E+00   0.00000000000000E+00   0.00000000000000E+00
      9.93034292779369E-19   0.00000000000000E+00   0.00000000000000E+00   0.00000000000000E+00   0.00000000000000E+00
     -7.45142757117601E-19   1.69070002652846E-34  -7.45142757117601E-19  -9.40737405695635E-18   3.25916601816192E-02
      3.25916590345352E-02   0.00000000000000E+00   0.00000000000000E+00   4.98275343619434E-09  -4.64681474093312E-35
      4.98275343619434E-09   4.24659349738458E-18
      4.24276920138415E-02
      0.00000000000000E+00   1.16671613298967E-09   0.00000000000000E+00   0.00000000000000E+00  -5.08079741453724E-09
     -1.20859100834284E-34  -5.08079741453724E-09   4.16596473705087E-18   0.00000000000000E+00   0.00000000000000E+00
      0.00000000000000E+00   0.00000000000000E+00   0.00000000000000E+00   0.00000000000000E+00   0.00000000000000E+00
      9.46069021100167E-19   0.00000000000000E+00   0.00000000000000E+00   0.00000000000000E+00   0.00000000000000E+00
     -1.25056791976880E-18   1.60148261926616E-34  -1.25056791976880E-18  -9.40528752370369E-18   3.64878151319037E-02
      3.64878139625789E-02   0.00000000000000E+00   0.00000000000000E+00   5.08079741578781E-09  -3.92891610923316E-35
      5.08079741578781E-09   4.29325376555266E-18
      4.73809432684667E-02
      0.00000000000000E+00   1.18716990829953E-09   0.00000000000000E+00   0.00000000000000E+00  -5.17147731710399E-09
     -1.25310089825519E-34  -5.17147731710399E-09   4.16401843017236E-18   0.00000000000000E+00   0.00000000000000E+00
      0.00000000000000E+00   0.00000000000000E+00   0.00000000000000E+00   0.00000000000000E+00   0.00000000000000E+00
      8.94758787436886E-19   0.00000000000000E+00   0.00000000000000E+00   0.00000000000000E+00   0.00000000000000E+00
     -6.46876318049092E-19   1.59756790256012E-34  -6.46876318049092E-19  -9.40311572244083E-18   4.07476112108814E-02
      4.07476100211108E-02   0.00000000000000E+00   0.00000000000000E+00   5.17147731775087E-09  -3.44467004304926E-35
      5.17147731775087E-09   4.34433850483157E-18
      5.27964979735236E-02
      0.00000000000000E+00   1.20746690813075E-09   0.00000000000000E+00   0.00000000000000E+00  -5.26185790334057E-09
     -1.42128681143799E-34  -5.26185790334057E-09   4.16189209946440E-18   0.00000000000000E+00   0.00000000000000E+00
      0.00000000000000E+00   0.00000000000000E+00   0.00000000000000E+00   0.00000000000000E+00   0.00000000000000E+00
      8.38702172248790E-19   0.00000000000000E+00   0.00000000000000E+00   0.00000000000000E+00   0.00000000000000E+00
      1.10292522994854E-19   1.67472556557100E-34   1.10292522994854E-19  -9.40086531751940E-18   4.54049882572303E-02
      4.54049870471915E-02   0.00000000000000E+00   0.00000000000000E+00   5.26185790323028E-09  -2.53438754133007E-35
      5.26185790323028E-09   4.40027104580620E-18
      5.86814007530188E-02
      0.00000000000000E+00   1.22881114665133E-09   0.00000000000000E+00   0.00000000000000E+00  -5.35715282975735E-09
     -1.33396571748844E-34  -5.35715282975735E-09   4.15958324403648E-18   0.00000000000000E+00   0.00000000000000E+00
      0.00000000000000E+00   0.00000000000000E+00   0.00000000000000E+00   0.00000000000000E+00   0.00000000000000E+00
      7.77833682900541E-19   0.00000000000000E+00   0.00000000000000E+00   0.00000000000000E+00   0.00000000000000E+00
     -2.17090037190311E-19   1.59414454083960E-34  -2.17090037190310E-19  -9.39855865955608E-18   5.04660046475962E-02
      5.04660034162593E-02   0.00000000000000E+00   0.00000000000000E+00   5.35715282997444E-09  -2.60178823351158E-35
      5.35715282997444E-09   4.46114173261906E-18
      6.50763284400702E-02
      0.00000000000000E+00   1.25216057318978E-09   0.00000000000000E+00   0.00000000000000E+00  -5.46151350028999E-09
     -1.21172534984403E-34  -5.46151350028999E-09   4.15707617350833E-18   0.00000000000000E+00   0.00000000000000E+00
      0.00000000000000E+00   0.00000000000000E+00   0.00000000000000E+00   0.00000000000000E+00   0.00000000000000E+00
      7.11739990728397E-19   0.00000000000000E+00   0.00000000000000E+00   0.00000000000000E+00   0.00000000000000E+00
     -9.09276378458448E-21   1.38923180124360E-34  -9.09276378458434E-21  -9.39620625656691E-18   5.59656424584604E-02
      5.59656412038406E-02   0.00000000000000E+00   0.00000000000000E+00   5.46151350029908E-09  -1.77506451399572E-35
      5.46151350029908E-09   4.52739009233020E-18
      7.20254831933328E-02
      0.00000000000000E+00   1.27817729471275E-09   0.00000000000000E+00   0.00000000000000E+00  -5.57785381781151E-09
     -1.18749629285287E-34  -5.57785381781151E-09   4.15435385472809E-18   0.00000000000000E+00   0.00000000000000E+00
      0.00000000000000E+00   0.00000000000000E+00   0.00000000000000E+00   0.00000000000000E+00   0.00000000000000E+00
      6.39972094761548E-19   0.00000000000000E+00   0.00000000000000E+00   0.00000000000000E+00   0.00000000000000E+00
      1.04396378054282E-19   1.34739148288128E-34   1.04396378054282E-19  -9.39382078024124E-18   6.19419155462662E-02
      6.19419142657241E-02   0.00000000000000E+00   0.00000000000000E+00   5.57785381770712E-09  -1.59895190028410E-35
      5.57785381770712E-09   4.59949483075158E-18
      7.95768980252114E-02
      0.00000000000000E+00   1.30719181334448E-09   0.00000000000000E+00   0.00000000000000E+00  -5.70765371336386E-09
     -1.17243441937668E-34  -5.70765371336386E-09   4.15139781614510E-18   0.00000000000000E+00   0.00000000000000E+00
      0.00000000000000E+00   0.00000000000000E+00   0.00000000000000E+00   0.00000000000000E+00   0.00000000000000E+00
      5.62042365932047E-19   0.00000000000000E+00   0.00000000000000E+00   0.00000000000000E+00   0.00000000000000E+00
     -1.45067604794202E-19   1.29591199377787E-34  -1.45067604794202E-19  -9.39141744155554E-18   6.84361323016818E-02
      6.84361309922468E-02   0.00000000000000E+00   0.00000000000000E+00   5.70765371350893E-09  -1.23477574401180E-35
      5.70765371350893E-09   4.67797725947839E-18
      8.77827688091861E-02
      0.00000000000000E+00   1.33928787462772E-09   0.00000000000000E+00   0.00000000000000E+00  -5.85129850029274E-09
     -1.16279376077725E-34  -5.85129850029274E-09   4.14818802837783E-18   0.00000000000000E+00   0.00000000000000E+00
      0.00000000000000E+00   0.00000000000000E+00   0.00000000000000E+00   0.00000000000000E+00   0.00000000000000E+00
      4.77421278300660E-19   0.00000000000000E+00   0.00000000000000E+00   0.00000000000000E+00   0.00000000000000E+00
     -2.63760596586652E-19   1.26335130250647E-34  -2.63760596586652E-19  -9.38901429940563E-18   7.54931811759001E-02
      7.54931798345041E-02   0.00000000000000E+00   0.00000000000000E+00   5.85129850055650E-09  -1.00557541729225E-35
      5.85129850055650E-09   4.76340499272718E-18
      9.66998150611054E-02
      0.00000000000000E+00   1.37460481516697E-09   0.00000000000000E+00   0.00000000000000E+00  -6.00944992282317E-09
     -1.17953227145237E-34  -6.00944992282317E-09   4.14470274592379E-18   0.00000000000000E+00   0.00000000000000E+00
      0.00000000000000E+00   0.00000000000000E+00   0.00000000000000E+00   0.00000000000000E+00   0.00000000000000E+00
      3.85533661340769E-19   0.00000000000000E+00   0.00000000000000E+00   0.00000000000000E+00   0.00000000000000E+00
     -4.27295159085591E-20   1.25411944956376E-34  -4.27295159085590E-20  -9.38663232916469E-18   8.31618409525506E-02
      8.31618395759843E-02   0.00000000000000E+00   0.00000000000000E+00   6.00944992286590E-09  -7.45871781113833E-36
      6.00944992286590E-09   4.85639592190012E-18
      1.06389671988191E-01
      0.00000000000000E+00   1.41351120266098E-09   0.00000000000000E+00   0.00000000000000E+00  -6.18381441675225E-09
     -1.26490408006705E-34  -6.18381441675225E-09   4.14091834423351E-18   0.00000000000000E+00   0.00000000000000E+00
      0.00000000000000E+00   0.00000000000000E+00   0.00000000000000E+00   0.00000000000000E+00   0.00000000000000E+00
      2.85754600667437E-19   0.00000000000000E+00   0.00000000000000E+00   0.00000000000000E+00   0.00000000000000E+00
      5.55759578926695E-20   1.31942772921071E-34   5.55759578926696E-20  -9.38429545854731E-18   9.14951179098442E-02
      9.14951164945496E-02   0.00000000000000E+00   0.00000000000000E+00   6.18381441669668E-09  -5.45236491436595E-36
      6.18381441669668E-09   4.95762251364637E-18
      1.16389671988191E-01
      0.00000000000000E+00   1.45437252515050E-09   0.00000000000000E+00   0.00000000000000E+00  -6.36710071588522E-09
     -1.13694050145953E-34  -6.36710071588522E-09   4.13701579932570E-18   0.00000000000000E+00   0.00000000000000E+00
      0.00000000000000E+00   0.00000000000000E+00   0.00000000000000E+00   0.00000000000000E+00   0.00000000000000E+00
      1.82853473659144E-19   0.00000000000000E+00   0.00000000000000E+00   0.00000000000000E+00   0.00000000000000E+00
      1.22215033430173E-19   1.17554759598690E-34   1.22215033430173E-19  -9.38213835221735E-18   1.00095117909844E-01
      1.00095116453905E-01   0.00000000000000E+00   0.00000000000000E+00   6.36710071576300E-09  -3.86070945273621E-36
      6.36710071576300E-09   5.06226907923251E-18
      1.26389671988191E-01
      0.00000000000000E+00   1.49609120489205E-09   0.00000000000000E+00   0.00000000000000E+00  -6.55438725269723E-09
     -1.24307481732667E-34  -6.55438725269723E-09   4.13311610191611E-18   0.00000000000000E+00   0.00000000000000E+00
      0.00000000000000E+00   0.00000000000000E+00   0.00000000000000E+00   0.00000000000000E+00   0.00000000000000E+00
      8.00186256480894E-20   0.00000000000000E+00   0.00000000000000E+00   0.00000000000000E+00   0.00000000000000E+00
      3.19331760865548E-20   1.27296745231319E-34   3.19331760865550E-20  -9.38022097425631E-18   1.08695117909844E-01
      1.08695116412422E-01   0.00000000000000E+00   0.00000000000000E+00   6.55438725266530E-09  -2.98926349865159E-36
      6.55438725266530E-09   5.16708624669211E-18
      1.36389671988191E-01
      0.00000000000000E+00   1.53876279529008E-09   0.00000000000000E+00   0.00000000000000E+00  -6.74609743923326E-09
     -1.26660543975928E-34  -6.74609743923326E-09   4.12921909402560E-18   0.00000000000000E+00   0.00000000000000E+00
      0.00000000000000E+00   0.00000000000000E+00   0.00000000000000E+00   0.00000000000000E+00   0.00000000000000E+00
     -2.27554713421270E-20   0.00000000000000E+00   0.00000000000000E+00   0.00000000000000E+00   0.00000000000000E+00
     -1.52422058487471E-20   1.28850191659621E-34  -1.52422058487470E-20  -9.37852626403826E-18   1.17295117909844E-01
      1.17295116369988E-01   0.00000000000000E+00   0.00000000000000E+00   6.74609743924850E-09  -2.18964768369349E-36
      6.74609743924850E-09   5.27206264135480E-18
      1.46389671988191E-01
      0.00000000000000E+00   1.58243160096695E-09   0.00000000000000E+00   0.00000000000000E+00  -6.94242672333465E-09
     -1.19911403898760E-34  -6.94242672333465E-09   4.12532463302837E-18   0.00000000000000E+00   0.00000000000000E+00
      0.00000000000000E+00   0.00000000000000E+00   0.00000000000000E+00   0.00000000000000E+00   0.00000000000000E+00
     -1.25473608136625E-19   0.00000000000000E+00   0.00000000000000E+00   0.00000000000000E+00   0.00000000000000E+00
      1.00204630709377E-19   1.21591497442983E-34   1.00204630709377E-19  -9.37703880383853E-18   1.25895117909844E-01
      1.25895116326553E-01   0.00000000000000E+00   0.00000000000000E+00   6.94242672323444E-09  -1.68009354422329E-36
      6.94242672323444E-09   5.37718777894680E-18
      1.56389671988191E-01
      0.00000000000000E+00   1.62710383713743E-09   0.00000000000000E+00   0.00000000000000E+00  -7.14340057891934E-09
     -1.16458139633521E-34  -7.14340057891934E-09   4.12143258774524E-18   0.00000000000000E+00   0.00000000000000E+00
      0.00000000000000E+00   0.00000000000000E+00   0.00000000000000E+00   0.00000000000000E+00   0.00000000000000E+00
     -2.28140020353179E-19   0.00000000000000E+00   0.00000000000000E+00   0.00000000000000E+00   0.00000000000000E+00
      9.85962768448002E-21   1.17744946563105E-34   9.85962768448014E-21  -9.37574453555366E-18   1.34495117909844E-01
      1.34495116282111E-01   0.00000000000000E+00   0.00000000000000E+00   7.14340057890948E-09  -1.28680692958418E-36
      7.14340057890948E-09   5.48245196816160E-18
      1.66389671988191E-01
      0.00000000000000E+00   1.67276751341293E-09   0.00000000000000E+00   0.00000000000000E+00  -7.34896699146196E-09
     -1.21747285238955E-34  -7.34896699146196E-09   4.11754283820484E-18   0.00000000000000E+00   0.00000000000000E+00
      0.00000000000000E+00   0.00000000000000E+00   0.00000000000000E+00   0.00000000000000E+00   0.00000000000000E+00
     -3.30758486313800E-19   0.00000000000000E+00   0.00000000000000E+00   0.00000000000000E+00   0.00000000000000E+00
      1.02347183178240E-19   1.22742756628522E-34   1.02347183178240E-19  -9.37463058436313E-18   1.43095117909844E-01
      1.43095116236680E-01   0.00000000000000E+00   0.00000000000000E+00   7.34896699135960E-09  -9.95471389566905E-37
      7.34896699135960E-09   5.58784623247209E-18
      1.76389671988191E-01
      0.00000000000000E+00   1.71941181769149E-09   0.00000000000000E+00   0.00000000000000E+00  -7.55908152236794E-09
     -1.12164348357784E-34  -7.55908152236794E-09   4.11365527998502E-18   0.00000000000000E+00   0.00000000000000E+00
      0.00000000000000E+00   0.00000000000000E+00   0.00000000000000E+00   0.00000000000000E+00   0.00000000000000E+00
     -4.33332285502499E-19   0.00000000000000E+00   0.00000000000000E+00   0.00000000000000E+00   0.00000000000000E+00
     -1.40712181614499E-19   1.12798933612677E-34  -1.40712181614499E-19  -9.37368526099907E-18   1.51695117909844E-01
      1.51695116190277E-01   0.00000000000000E+00   0.00000000000000E+00   7.55908152250865E-09  -6.34585254893758E-37
      7.55908152250865E-09   5.69336226651656E-18
      1.86389671988191E-01
      0.00000000000000E+00   1.76703501189863E-09   0.00000000000000E+00   0.00000000000000E+00  -7.77374260526278E-09