DF-ISE text

Info {
  version   = 1.0
  type      = xyplot
  datasets  = [
    "time"
    "source OuterVoltage" "source InnerVoltage" "source QuasiFermiPotential" "source DisplacementCurrent" "source eCurrent"
    "source hCurrent" "source TotalCurrent" "source Charge" "gate OuterVoltage" "gate InnerVoltage"
    "gate QuasiFermiPotential" "gate DisplacementCurrent" "gate eCurrent" "gate hCurrent" "gate TotalCurrent"
    "gate Charge" "substrate OuterVoltage" "substrate InnerVoltage" "substrate QuasiFermiPotential" "substrate DisplacementCurrent"
    "substrate eCurrent" "substrate hCurrent" "substrate TotalCurrent" "substrate Charge" "drain OuterVoltage"
    "drain InnerVoltage" "drain QuasiFermiPotential" "drain DisplacementCurrent" "drain eCurrent" "drain hCurrent"
    "drain TotalCurrent" "drain Charge" ]
  functions = [
    Time
    OuterVoltage InnerVoltage QuasiFermiPotential DisplacementCurrent eCurrent
    hCurrent TotalCurrent Charge OuterVoltage InnerVoltage
    QuasiFermiPotential DisplacementCurrent eCurrent hCurrent TotalCurrent
    Charge OuterVoltage InnerVoltage QuasiFermiPotential DisplacementCurrent
    eCurrent hCurrent TotalCurrent Charge OuterVoltage
    InnerVoltage QuasiFermiPotential DisplacementCurrent eCurrent hCurrent
    TotalCurrent Charge ]
}

Data {
      0.00000000000000E+00
      0.00000000000000E+00   0.00000000000000E+00   0.00000000000000E+00   0.00000000000000E+00   1.98697129906716E-21
     -1.25080362764768E-34   1.98697129906703E-21   4.68880396405292E-18   0.00000000000000E+00   0.00000000000000E+00
      0.00000000000000E+00   0.00000000000000E+00   0.00000000000000E+00   0.00000000000000E+00   0.00000000000000E+00
      3.73239682021654E-18   0.00000000000000E+00   0.00000000000000E+00   0.00000000000000E+00   0.00000000000000E+00
     -2.59792569387981E-21   2.83159746612267E-34  -2.59792569387952E-21  -1.22393389041782E-17   0.00000000000000E+00
      0.00000000000000E+00   0.00000000000000E+00   0.00000000000000E+00   6.10954394812651E-22  -1.58079383847499E-34
      6.10954394812493E-22   3.81813811990870E-18
      0.00000000000000E+00
      0.00000000000000E+00   0.00000000000000E+00   0.00000000000000E+00   0.00000000000000E+00  -8.06362288599291E-21
     -1.82932211569164E-34  -8.06362288599309E-21   4.68719076916351E-18   0.00000000000000E+00   0.00000000000000E+00
      0.00000000000000E+00   0.00000000000000E+00   0.00000000000000E+00   0.00000000000000E+00   0.00000000000000E+00
      3.72651132409898E-18   0.00000000000000E+00   0.00000000000000E+00   0.00000000000000E+00   0.00000000000000E+00
      2.46448724586599E-20   3.28467646707817E-34   2.46448724586602E-20  -1.22307081006671E-17   0.00000000000000E+00
      0.00000000000000E+00   0.00000000000000E+00   0.00000000000000E+00  -1.65812495726670E-20  -1.45535435138653E-34
     -1.65812495726671E-20   3.81700600740460E-18
      1.00000000000000E-03
      0.00000000000000E+00   1.72996946126897E-12   0.00000000000000E+00   0.00000000000000E+00  -7.13433909139911E-12
     -1.37797469992586E-34  -7.13433909139911E-12   4.68717687403204E-18   0.00000000000000E+00   0.00000000000000E+00
      0.00000000000000E+00   0.00000000000000E+00   0.00000000000000E+00   0.00000000000000E+00   0.00000000000000E+00
      3.72594521876863E-18   0.00000000000000E+00   0.00000000000000E+00   0.00000000000000E+00   0.00000000000000E+00
     -1.19529511601821E-19   2.84366590275974E-34  -1.19529511601820E-19  -1.22306911805660E-17   5.00000000000000E-05
      4.99999982459313E-05   0.00000000000000E+00   0.00000000000000E+00   7.13433921092862E-12  -1.46569120283388E-34
      7.13433921092862E-12   3.81756908776533E-18
      2.09333333333333E-03
      0.00000000000000E+00   3.61575261877191E-12   0.00000000000000E+00   0.00000000000000E+00  -1.49112262423083E-11
     -1.36147636533385E-34  -1.49112262423083E-11   4.68716168219371E-18   0.00000000000000E+00   0.00000000000000E+00
      0.00000000000000E+00   0.00000000000000E+00   0.00000000000000E+00   0.00000000000000E+00   0.00000000000000E+00
      3.72532628602453E-18   0.00000000000000E+00   0.00000000000000E+00   0.00000000000000E+00   0.00000000000000E+00
      1.41910825860222E-20   2.79227312834192E-34   1.41910825860225E-20  -1.22306727014920E-17   1.04666666666667E-04
      1.04666663000551E-04   0.00000000000000E+00   0.00000000000000E+00   1.49112262281172E-11  -1.43079676300807E-34
      1.49112262281172E-11   3.81818473327372E-18
      3.29600000000000E-03
      0.00000000000000E+00   5.68306689936553E-12   0.00000000000000E+00   0.00000000000000E+00  -2.34366800585658E-11
     -1.16901959257206E-34  -2.34366800585658E-11   4.68714497137986E-18   0.00000000000000E+00   0.00000000000000E+00
      0.00000000000000E+00   0.00000000000000E+00   0.00000000000000E+00   0.00000000000000E+00   0.00000000000000E+00
      3.72464547095535E-18   0.00000000000000E+00   0.00000000000000E+00   0.00000000000000E+00   0.00000000000000E+00
     -9.90263119374764E-21   2.75194901187074E-34  -9.90263119374736E-21  -1.22306523989056E-17   1.64800000000000E-04
      1.64799994237788E-04   0.00000000000000E+00   0.00000000000000E+00   2.34366800684684E-11  -1.58292941929868E-34
      2.34366800684684E-11   3.81886195657037E-18
      4.61893333333333E-03
      0.00000000000000E+00   7.94841734258918E-12   0.00000000000000E+00   0.00000000000000E+00  -3.27787715430752E-11
     -1.46882186818294E-34  -3.27787715430752E-11   4.68712658973711E-18   0.00000000000000E+00   0.00000000000000E+00
      0.00000000000000E+00   0.00000000000000E+00   0.00000000000000E+00   0.00000000000000E+00   0.00000000000000E+00
      3.72389658761394E-18   0.00000000000000E+00   0.00000000000000E+00   0.00000000000000E+00   0.00000000000000E+00
     -4.79974306058983E-21   2.93247629820852E-34  -4.79974306058954E-21  -1.22306300955517E-17   2.30946666666667E-04
      2.30946658607568E-04   0.00000000000000E+00   0.00000000000000E+00   3.27787715478749E-11  -1.46365443002558E-34
      3.27787715478749E-11   3.81960691820069E-18
      6.07416000000000E-03
      0.00000000000000E+00   1.04296407366717E-11   0.00000000000000E+00   0.00000000000000E+00  -4.30110579212388E-11
     -1.04554453345838E-34  -4.30110579212388E-11   4.68710637023584E-18   0.00000000000000E+00   0.00000000000000E+00
      0.00000000000000E+00   0.00000000000000E+00   0.00000000000000E+00   0.00000000000000E+00   0.00000000000000E+00
      3.72307283193364E-18   0.00000000000000E+00   0.00000000000000E+00   0.00000000000000E+00   0.00000000000000E+00
     -2.23112841966779E-21   2.43984652662523E-34  -2.23112841966755E-21  -1.22306055975113E-17   3.03708000000000E-04
      3.03707989425129E-04   0.00000000000000E+00   0.00000000000000E+00   4.30110579234700E-11  -1.39430199316684E-34
      4.30110579234700E-11   3.82042639534179E-18
      7.67490933333333E-03
      0.00000000000000E+00   1.31459569435317E-11   0.00000000000000E+00   0.00000000000000E+00  -5.42128056838297E-11
     -1.43810706635788E-34  -5.42128056838297E-11   4.68708412915459E-18   0.00000000000000E+00   0.00000000000000E+00
      0.00000000000000E+00   0.00000000000000E+00   0.00000000000000E+00   0.00000000000000E+00   0.00000000000000E+00
      3.72216672001452E-18   0.00000000000000E+00   0.00000000000000E+00   0.00000000000000E+00   0.00000000000000E+00
      3.02374389259421E-20   2.88292330564283E-34   3.02374389259423E-20  -1.22305786927545E-17   3.83745466666667E-04
      3.83745453337663E-04   0.00000000000000E+00   0.00000000000000E+00   5.42128056535922E-11  -1.44481623928495E-34
      5.42128056535922E-11   3.82132784358539E-18
      9.43573360000000E-03
      0.00000000000000E+00   1.61180508386901E-11   0.00000000000000E+00   0.00000000000000E+00  -6.64692008046872E-11
     -1.34471353530563E-34  -6.64692008046872E-11   4.68705966441307E-18   0.00000000000000E+00   0.00000000000000E+00
      0.00000000000000E+00   0.00000000000000E+00   0.00000000000000E+00   0.00000000000000E+00   0.00000000000000E+00
      3.72117002025862E-18   0.00000000000000E+00   0.00000000000000E+00   0.00000000000000E+00   0.00000000000000E+00
      3.20706052562246E-20   2.91078579179528E-34   3.20706052562249E-20  -1.22305491495957E-17   4.71786680000000E-04
      4.71786663657524E-04   0.00000000000000E+00   0.00000000000000E+00   6.64692007726166E-11  -1.56607225648965E-34
      6.64692007726166E-11   3.82231946492405E-18
      1.13726402933333E-02
      0.00000000000000E+00   1.93680552029366E-11   0.00000000000000E+00   0.00000000000000E+00  -7.98715211064585E-11
     -1.73192323917667E-34  -7.98715211064585E-11   4.68703275373918E-18   0.00000000000000E+00   0.00000000000000E+00
      0.00000000000000E+00   0.00000000000000E+00   0.00000000000000E+00   0.00000000000000E+00   0.00000000000000E+00
      3.72007367874250E-18   0.00000000000000E+00   0.00000000000000E+00   0.00000000000000E+00   0.00000000000000E+00
      4.48757759938873E-20   3.44232880484575E-34   4.48757759938876E-20  -1.22305167150470E-17   5.68632014666667E-04
      5.68631995028953E-04   0.00000000000000E+00   0.00000000000000E+00   7.98715210615828E-11  -1.71040556566909E-34
      7.98715210615828E-11   3.82341028256527E-18
      1.35032376560000E-02
      0.00000000000000E+00   2.29196128525935E-11   0.00000000000000E+00   0.00000000000000E+00  -9.45172472121198E-11
     -1.47829558894186E-34  -9.45172472121198E-11   4.68700315265307E-18   0.00000000000000E+00   0.00000000000000E+00
      0.00000000000000E+00   0.00000000000000E+00   0.00000000000000E+00   0.00000000000000E+00   0.00000000000000E+00
      3.71886773715674E-18   0.00000000000000E+00   0.00000000000000E+00   0.00000000000000E+00   0.00000000000000E+00
      2.35865626645582E-20   3.00803909942379E-34   2.35865626645585E-20  -1.22304811130735E-17   6.75161882800000E-04
      6.75161859561294E-04   0.00000000000000E+00   0.00000000000000E+00   9.45172471885332E-11  -1.52974351048193E-34
      9.45172471885332E-11   3.82461022326367E-18
      1.58468947549333E-02
      0.00000000000000E+00   2.67979027522345E-11   0.00000000000000E+00   0.00000000000000E+00  -1.10510096600419E-10
     -1.30639833634380E-34  -1.10510096600419E-10   4.68697059225046E-18   0.00000000000000E+00   0.00000000000000E+00
      0.00000000000000E+00   0.00000000000000E+00   0.00000000000000E+00   0.00000000000000E+00   0.00000000000000E+00
      3.71754124257275E-18   0.00000000000000E+00   0.00000000000000E+00   0.00000000000000E+00   0.00000000000000E+00
      7.59215530837082E-20   3.00189135392543E-34   7.59215530837086E-20  -1.22304420427518E-17   7.92344737746667E-04
      7.92344710575710E-04   0.00000000000000E+00   0.00000000000000E+00   1.10510096524498E-10  -1.69549301758163E-34
      1.10510096524498E-10   3.82593020792856E-18
      1.84249175637600E-02
      0.00000000000000E+00   3.10295760835447E-11   0.00000000000000E+00   0.00000000000000E+00  -1.27959945046458E-10
     -1.74274072108845E-34  -1.27959945046458E-10   4.68693477676502E-18   0.00000000000000E+00   0.00000000000000E+00
      0.00000000000000E+00   0.00000000000000E+00   0.00000000000000E+00   0.00000000000000E+00   0.00000000000000E+00
      3.71608214823080E-18   0.00000000000000E+00   0.00000000000000E+00   0.00000000000000E+00   0.00000000000000E+00
      9.89030603125275E-20   3.54840300368640E-34   9.89030603125279E-20  -1.22303991763413E-17   9.21245878188001E-04
      9.21245846726484E-04   0.00000000000000E+00   0.00000000000000E+00   1.27959944947555E-10  -1.80566228259796E-34
      1.27959944947555E-10   3.82738225134547E-18
      2.12607426534693E-02
      0.00000000000000E+00   3.56427490418114E-11   0.00000000000000E+00   0.00000000000000E+00  -1.46982618151080E-10
     -1.40629481872613E-34  -1.46982618151080E-10   4.68689538088783E-18   0.00000000000000E+00   0.00000000000000E+00
      0.00000000000000E+00   0.00000000000000E+00   0.00000000000000E+00   0.00000000000000E+00   0.00000000000000E+00
      3.71447720445350E-18   0.00000000000000E+00   0.00000000000000E+00   0.00000000000000E+00   0.00000000000000E+00
      1.51677827624288E-19   2.98446144265765E-34   1.51677827624289E-19  -1.22303521572718E-17   1.06303713267347E-03
      1.06303709653460E-03   0.00000000000000E+00   0.00000000000000E+00   1.46982617999402E-10  -1.57816662393153E-34
      1.46982617999402E-10   3.82897957193043E-18
      2.43801502521496E-02
      0.00000000000000E+00   4.06668677701341E-11   0.00000000000000E+00   0.00000000000000E+00  -1.67699509476248E-10
     -1.43490253938498E-34  -1.67699509476248E-10   4.68685204682033E-18   0.00000000000000E+00   0.00000000000000E+00
      0.00000000000000E+00   0.00000000000000E+00   0.00000000000000E+00   0.00000000000000E+00   0.00000000000000E+00
      3.71271183871376E-18   0.00000000000000E+00   0.00000000000000E+00   0.00000000000000E+00   0.00000000000000E+00
      2.63876071621411E-19   3.02612811952757E-34   2.63876071621411E-19  -1.22303005980704E-17   1.21900751260748E-03
      1.21900747137460E-03   0.00000000000000E+00   0.00000000000000E+00   1.67699509212371E-10  -1.59122558014258E-34
      1.67699509212371E-10   3.83073671253631E-18
      2.78114986106979E-02
      0.00000000000000E+00   4.61326462291614E-11   0.00000000000000E+00   0.00000000000000E+00  -1.90236990316193E-10
     -1.56601286291067E-34  -1.90236990316193E-10   4.68680438103366E-18   0.00000000000000E+00   0.00000000000000E+00
      0.00000000000000E+00   0.00000000000000E+00   0.00000000000000E+00   0.00000000000000E+00   0.00000000000000E+00
      3.71077002377925E-18   0.00000000000000E+00   0.00000000000000E+00   0.00000000000000E+00   0.00000000000000E+00
      4.24548647447775E-19   2.87430597139309E-34   4.24548647447775E-19  -1.22302440782414E-17   1.39057493053490E-03
      1.39057488376022E-03   0.00000000000000E+00   0.00000000000000E+00   1.90236989891644E-10  -1.30829310848242E-34
      1.90236989891644E-10   3.83266967342850E-18
      3.15859818051010E-02
      0.00000000000000E+00   5.20717177273525E-11   0.00000000000000E+00   0.00000000000000E+00  -2.14725573816604E-10
     -1.61706291060064E-34  -2.14725573816604E-10   4.68675195070550E-18   0.00000000000000E+00   0.00000000000000E+00
      0.00000000000000E+00   0.00000000000000E+00   0.00000000000000E+00   0.00000000000000E+00   0.00000000000000E+00
      3.70863413275737E-18   0.00000000000000E+00   0.00000000000000E+00   0.00000000000000E+00   0.00000000000000E+00
      1.11004179461990E-17   2.97325083135221E-34   1.11004179461990E-17  -1.22301821421291E-17   1.57929909025505E-03
      1.57929903745870E-03   0.00000000000000E+00   0.00000000000000E+00   2.14725562716186E-10  -1.35618792075157E-34
      2.14725562716186E-10   3.83479605866628E-18
      3.57379133189445E-02
      0.00000000000000E+00   5.85165349722927E-11   0.00000000000000E+00   0.00000000000000E+00  -2.41298708489941E-10
     -1.61452941891292E-34  -2.41298708489941E-10   4.68669427980291E-18   0.00000000000000E+00   0.00000000000000E+00
      0.00000000000000E+00   0.00000000000000E+00   0.00000000000000E+00   0.00000000000000E+00   0.00000000000000E+00
      3.70628477974749E-18   0.00000000000000E+00   0.00000000000000E+00   0.00000000000000E+00   0.00000000000000E+00
      9.52968366150823E-19   3.03131986463339E-34   9.52968366150824E-19  -1.22301142968022E-17   1.78689566594722E-03
      1.78689560661643E-03   0.00000000000000E+00   0.00000000000000E+00   2.41298707536973E-10  -1.41679044572047E-34
      2.41298707536973E-10   3.83713523725183E-18
      4.03050379841723E-02
      0.00000000000000E+00   6.54998613228842E-11   0.00000000000000E+00   0.00000000000000E+00  -2.70091364070643E-10
     -1.37939157537629E-34  -2.70091364070643E-10   4.68663084477559E-18   0.00000000000000E+00   0.00000000000000E+00
      0.00000000000000E+00   0.00000000000000E+00   0.00000000000000E+00   0.00000000000000E+00   0.00000000000000E+00
      3.70370064467787E-18   0.00000000000000E+00   0.00000000000000E+00   0.00000000000000E+00   0.00000000000000E+00
      1.40632685651579E-18   2.84834601002175E-34   1.40632685651579E-18  -1.22300400100005E-17   2.01525189920861E-03
      2.01525183279740E-03   0.00000000000000E+00   0.00000000000000E+00   2.70091362664316E-10  -1.46895443464546E-34
      2.70091362664316E-10   3.83970852054704E-18
      4.53288751159228E-02
      0.00000000000000E+00   7.30543845011869E-11   0.00000000000000E+00   0.00000000000000E+00  -3.01237972450441E-10
     -1.68666870683296E-34  -3.01237972450441E-10   4.68656106982134E-18   0.00000000000000E+00   0.00000000000000E+00
      0.00000000000000E+00   0.00000000000000E+00   0.00000000000000E+00   0.00000000000000E+00   0.00000000000000E+00
      3.70085828077445E-18   0.00000000000000E+00   0.00000000000000E+00   0.00000000000000E+00   0.00000000000000E+00
      2.05911366150135E-18   3.25505810711004E-34   2.05911366150135E-18  -1.22299587082139E-17   2.26644375579614E-03
      2.26644368172540E-03   0.00000000000000E+00   0.00000000000000E+00   3.01237970391328E-10  -1.56838940027708E-34
      3.01237970391328E-10   3.84253935761811E-18
      5.08550959608485E-02
      0.00000000000000E+00   8.12120529691700E-11   0.00000000000000E+00   0.00000000000000E+00  -3.34870058883514E-10
     -1.32130999585513E-34  -3.34870058883514E-10   4.68648432168128E-18   0.00000000000000E+00   0.00000000000000E+00
      0.00000000000000E+00   0.00000000000000E+00   0.00000000000000E+00   0.00000000000000E+00   0.00000000000000E+00
      3.69773190294306E-18   0.00000000000000E+00   0.00000000000000E+00   0.00000000000000E+00   0.00000000000000E+00
      2.68760306577458E-17   2.77674135811902E-34   2.68760306577458E-17  -1.22298697749575E-17   2.54275479804242E-03
      2.54275471570063E-03   0.00000000000000E+00   0.00000000000000E+00   3.34870032007483E-10  -1.45543136226389E-34
      3.34870032007483E-10   3.84565355033316E-18
      5.69339388902666E-02
      0.00000000000000E+00   9.00034195089727E-11   0.00000000000000E+00   0.00000000000000E+00  -3.71113119367720E-10
     -1.41181686200885E-34  -3.71113119367720E-10   4.68639990391838E-18   0.00000000000000E+00   0.00000000000000E+00
      0.00000000000000E+00   0.00000000000000E+00   0.00000000000000E+00   0.00000000000000E+00   0.00000000000000E+00
      3.69429315518744E-18   0.00000000000000E+00   0.00000000000000E+00   0.00000000000000E+00   0.00000000000000E+00
      4.43650252513542E-18   2.76759422530312E-34   4.43650252513542E-18  -1.22297725493372E-17   2.84669694451333E-03
      2.84669685325800E-03   0.00000000000000E+00   0.00000000000000E+00   3.71113114931218E-10  -1.35577736329427E-34
      3.71113114931218E-10   3.84907949023135E-18
      6.36206661126266E-02
      0.00000000000000E+00   9.94567056671984E-11   0.00000000000000E+00   0.00000000000000E+00  -4.10083188201756E-10
     -1.17644925263244E-34  -4.10083188201756E-10   4.68630705062865E-18   0.00000000000000E+00   0.00000000000000E+00
      0.00000000000000E+00   0.00000000000000E+00   0.00000000000000E+00   0.00000000000000E+00   0.00000000000000E+00
      3.69051085502111E-18   0.00000000000000E+00   0.00000000000000E+00   0.00000000000000E+00   0.00000000000000E+00
      6.48435797726092E-18   2.62888521461039E-34   6.48435797726092E-18  -1.22296663250426E-17   3.18103330563133E-03
      3.18103320479137E-03   0.00000000000000E+00   0.00000000000000E+00   4.10083181717398E-10  -1.45243596197796E-34
      4.10083181717398E-10   3.85284841939282E-18
      7.09760660572226E-02
      0.00000000000000E+00   1.09596791462806E-10   0.00000000000000E+00   0.00000000000000E+00  -4.51882248135921E-10
     -1.41659792329056E-34  -4.51882248135921E-10   4.68620491952880E-18   0.00000000000000E+00   0.00000000000000E+00
      0.00000000000000E+00   0.00000000000000E+00   0.00000000000000E+00   0.00000000000000E+00   0.00000000000000E+00
      3.68635071259555E-18   0.00000000000000E+00   0.00000000000000E+00   0.00000000000000E+00   0.00000000000000E+00
      9.39644683079457E-18   2.67691850353534E-34   9.39644683079457E-18  -1.22295503498917E-17   3.54880330286113E-03
      3.54880319174023E-03   0.00000000000000E+00   0.00000000000000E+00   4.51882238739474E-10  -1.26032058024479E-34
      4.51882238739474E-10   3.85699471776734E-18
      7.90670059962782E-02
      0.00000000000000E+00   1.20443907049823E-10   0.00000000000000E+00   0.00000000000000E+00  -4.96593244655304E-10
     -1.60737270013669E-34  -4.96593244655304E-10   4.68609258435878E-18   0.00000000000000E+00   0.00000000000000E+00
      0.00000000000000E+00   0.00000000000000E+00   0.00000000000000E+00   0.00000000000000E+00   0.00000000000000E+00
      3.68177502206826E-18   0.00000000000000E+00   0.00000000000000E+00   0.00000000000000E+00   0.00000000000000E+00
      1.37547723145827E-17   2.82583246526538E-34   1.37547723145827E-17  -1.22294238261000E-17   3.95335029981391E-03
      3.95335017769523E-03   0.00000000000000E+00   0.00000000000000E+00   4.96593230900532E-10  -1.21845976512868E-34
      4.96593230900532E-10   3.86155621967296E-18
      8.79670399292394E-02
      0.00000000000000E+00   1.32012310873481E-10   0.00000000000000E+00   0.00000000000000E+00  -5.44274180185499E-10
     -1.43939255506903E-34  -5.44274180185499E-10   4.68596902653163E-18   0.00000000000000E+00   0.00000000000000E+00
      0.00000000000000E+00   0.00000000000000E+00   0.00000000000000E+00   0.00000000000000E+00   0.00000000000000E+00
      3.67674232248890E-18   0.00000000000000E+00   0.00000000000000E+00   0.00000000000000E+00   0.00000000000000E+00
      2.93487913493183E-17   2.85295405361250E-34   2.93487913493183E-17  -1.22292859114802E-17   4.39835199646197E-03
      4.39835186261426E-03   0.00000000000000E+00   0.00000000000000E+00   5.44274150836708E-10  -1.41356149854347E-34
      5.44274150836708E-10   3.86657456245968E-18
      9.77570772554967E-02
      0.00000000000000E+00   1.44308536516264E-10   0.00000000000000E+00   0.00000000000000E+00  -5.94951374395015E-10
     -1.18206022784677E-34  -5.94951374395015E-10   4.68583312595695E-18   0.00000000000000E+00   0.00000000000000E+00
      0.00000000000000E+00   0.00000000000000E+00   0.00000000000000E+00   0.00000000000000E+00   0.00000000000000E+00
      3.67120702523162E-18   0.00000000000000E+00   0.00000000000000E+00   0.00000000000000E+00   0.00000000000000E+00
      2.88058001277293E-17   2.66506720971884E-34   2.88058001277293E-17  -1.22291357218484E-17   4.88785386277484E-03
      4.88785371646018E-03   0.00000000000000E+00   0.00000000000000E+00   5.94951345589215E-10  -1.48300698187206E-34
      5.94951345589215E-10   3.87209557065984E-18
      1.07757077255497E-01
      0.00000000000000E+00   1.56417021611370E-10   0.00000000000000E+00   0.00000000000000E+00  -6.44851073183966E-10
     -1.57862352227318E-34  -6.44851073183966E-10   4.68569432475720E-18   0.00000000000000E+00   0.00000000000000E+00
      0.00000000000000E+00   0.00000000000000E+00   0.00000000000000E+00   0.00000000000000E+00   0.00000000000000E+00
      3.66555373586166E-18   0.00000000000000E+00   0.00000000000000E+00   0.00000000000000E+00   0.00000000000000E+00
      4.18543711933777E-17   3.02225342212805E-34   4.18543711933777E-17  -1.22289839397700E-17   5.38785386277483E-03
      5.38785370418363E-03   0.00000000000000E+00   0.00000000000000E+00   6.44851031329595E-10  -1.44362989985488E-34
      6.44851031329595E-10   3.87773587915113E-18
      1.17757077255497E-01
      0.00000000000000E+00   1.68082427884537E-10   0.00000000000000E+00   0.00000000000000E+00  -6.92921100379136E-10
     -1.41862965315608E-34  -6.92921100379136E-10   4.68555553755146E-18   0.00000000000000E+00   0.00000000000000E+00
      0.00000000000000E+00   0.00000000000000E+00   0.00000000000000E+00   0.00000000000000E+00   0.00000000000000E+00
      3.65990116879249E-18   0.00000000000000E+00   0.00000000000000E+00   0.00000000000000E+00   0.00000000000000E+00
      3.33059935550232E-17   2.72653317534061E-34   3.33059935550232E-17  -1.22288337915805E-17   5.88785386277483E-03
      5.88785369235635E-03   0.00000000000000E+00   0.00000000000000E+00   6.92921067073144E-10  -1.30790352218453E-34
      6.92921067073144E-10   3.88337708523651E-18
      1.27757077255497E-01
      0.00000000000000E+00   1.79317899038011E-10   0.00000000000000E+00   0.00000000000000E+00  -7.39216052933621E-10
     -1.14139922344311E-34  -7.39216052933621E-10   4.68541676420860E-18   0.00000000000000E+00   0.00000000000000E+00
      0.00000000000000E+00   0.00000000000000E+00   0.00000000000000E+00   0.00000000000000E+00   0.00000000000000E+00
      3.65424931768552E-18   0.00000000000000E+00   0.00000000000000E+00   0.00000000000000E+00   0.00000000000000E+00
      2.75831557511616E-17   2.34824209790408E-34   2.75831557511616E-17  -1.22286852652957E-17   6.38785386277483E-03
      6.38785368096499E-03   0.00000000000000E+00   0.00000000000000E+00   7.39216025350465E-10  -1.20684287446097E-34
      7.39216025350465E-10   3.88901918340153E-18
      1.37757077255497E-01
      0.00000000000000E+00   1.90136482427108E-10   0.00000000000000E+00   0.00000000000000E+00  -7.83789919953276E-10
     -1.60794289949473E-34  -7.83789919953276E-10   4.68527800459708E-18   0.00000000000000E+00   0.00000000000000E+00
      0.00000000000000E+00   0.00000000000000E+00   0.00000000000000E+00   0.00000000000000E+00   0.00000000000000E+00
      3.64859817626254E-18   0.00000000000000E+00   0.00000000000000E+00   0.00000000000000E+00   0.00000000000000E+00
      3.23221088574376E-17   2.80356823905695E-34   3.23221088574376E-17  -1.22285383490290E-17   6.88785386277483E-03
      6.88785366999635E-03   0.00000000000000E+00   0.00000000000000E+00   7.83789887631167E-10  -1.19562533956223E-34
      7.83789887631167E-10   3.89466216816935E-18
      1.47757077255497E-01
      0.00000000000000E+00   2.00551048020737E-10   0.00000000000000E+00   0.00000000000000E+00  -8.26696027583661E-10
     -1.35757434816165E-34  -8.26696027583661E-10   4.68513925858454E-18   0.00000000000000E+00   0.00000000000000E+00
      0.00000000000000E+00   0.00000000000000E+00   0.00000000000000E+00   0.00000000000000E+00   0.00000000000000E+00
      3.64294773827317E-18   0.00000000000000E+00   0.00000000000000E+00   0.00000000000000E+00   0.00000000000000E+00
      3.27105090085367E-17   2.74968569156616E-34   3.27105090085367E-17  -1.22283930309499E-17   7.38785386277483E-03
      7.38785365943734E-03   0.00000000000000E+00   0.00000000000000E+00   8.26695994873153E-10  -1.39211134340451E-34
      8.26695994873153E-10   3.90030603409221E-18
      1.57757077255497E-01
      0.00000000000000E+00   2.10574203760177E-10   0.00000000000000E+00   0.00000000000000E+00  -8.67986819764973E-10
     -1.52628703292642E-34  -8.67986819764973E-10   4.68500052603836E-18   0.00000000000000E+00   0.00000000000000E+00
      0.00000000000000E+00   0.00000000000000E+00   0.00000000000000E+00   0.00000000000000E+00   0.00000000000000E+00
      3.63729799753341E-18   0.00000000000000E+00   0.00000000000000E+00   0.00000000000000E+00   0.00000000000000E+00
      3.10569292902768E-17   2.55607185290862E-34   3.10569292902768E-17  -1.22282492993291E-17   7.88785386277484E-03
      7.88785364927504E-03   0.00000000000000E+00   0.00000000000000E+00   8.67986788708043E-10  -1.02978481998220E-34
      8.67986788708043E-10   3.90595077575738E-18
      1.67757077255497E-01
      0.00000000000000E+00   2.20218443231005E-10   0.00000000000000E+00   0.00000000000000E+00  -9.07713800739865E-10
     -1.46570015854268E-34  -9.07713800739865E-10   4.68486180682679E-18   0.00000000000000E+00   0.00000000000000E+00
      0.00000000000000E+00   0.00000000000000E+00   0.00000000000000E+00   0.00000000000000E+00   0.00000000000000E+00
      3.63164894791377E-18   0.00000000000000E+00   0.00000000000000E+00   0.00000000000000E+00   0.00000000000000E+00
      3.04736857187782E-17   2.65184593999166E-34   3.04736857187782E-17  -1.22281071425338E-17   8.38785386277484E-03
      8.38785363949695E-03   0.00000000000000E+00   0.00000000000000E+00   9.07713770266179E-10  -1.18614578144898E-34
      9.07713770266179E-10   3.91159638779326E-18
      1.77757077255497E-01
      0.00000000000000E+00   2.29495922354321E-10   0.00000000000000E+00   0.00000000000000E+00  -9.45927411549409E-10
     -1.40028779662997E-34  -9.45927411549409E-10   4.68472310081831E-18   0.00000000000000E+00   0.00000000000000E+00
      0.00000000000000E+00   0.00000000000000E+00   0.00000000000000E+00   0.00000000000000E+00   0.00000000000000E+00
      3.62600058336628E-18   0.00000000000000E+00   0.00000000000000E+00   0.00000000000000E+00   0.00000000000000E+00
      2.99639919770120E-17   2.85472131994712E-34   2.99639919770120E-17  -1.22279665490630E-17   8.88785386277484E-03
      8.88785363009071E-03   0.00000000000000E+00   0.00000000000000E+00   9.45927381585417E-10  -1.45443352331715E-34
      9.45927381585417E-10   3.91724286487847E-18
      1.87757077255497E-01
      0.00000000000000E+00   2.38418581846400E-10   0.00000000000000E+00   0.00000000000000E+00  -9.82677076761838E-10
     -1.42119932052089E-34  -9.82677076761838E-10   4.68458440788086E-18   0.00000000000000E+00   0.00000000000000E+00
      0.00000000000000E+00   0.00000000000000E+00   0.00000000000000E+00   0.00000000000000E+00   0.00000000000000E+00
      3.62035289785855E-18   0.00000000000000E+00   0.00000000000000E+00   0.00000000000000E+00   0.00000000000000E+00
      2.46839973403709E-17   2.60123451310021E-34   2.46839973403709E-17  -1.22278275074461E-17   9.38785386277484E-03
      9.38785362104423E-03   0.00000000000000E+00   0.00000000000000E+00   9.82677052077840E-10  -1.18003519257932E-34
      9.82677052077840E-10   3.92289020170668E-18
      1.97757077255497E-01
      0.00000000000000E+00   2.46998077884921E-10   0.00000000000000E+00   0.00000000000000E+00  -1.01801113799769E-09