DF-ISE text

Info {
  version   = 1.0
  type      = xyplot
  datasets  = [
    "time"
    "source OuterVoltage" "source InnerVoltage" "source QuasiFermiPotential" "source DisplacementCurrent" "source eCurrent"
    "source hCurrent" "source TotalCurrent" "source Charge" "gate OuterVoltage" "gate InnerVoltage"
    "gate QuasiFermiPotential" "gate DisplacementCurrent" "gate eCurrent" "gate hCurrent" "gate TotalCurrent"
    "gate Charge" "substrate OuterVoltage" "substrate InnerVoltage" "substrate QuasiFermiPotential" "substrate DisplacementCurrent"
    "substrate eCurrent" "substrate hCurrent" "substrate TotalCurrent" "substrate Charge" "drain OuterVoltage"
    "drain InnerVoltage" "drain QuasiFermiPotential" "drain DisplacementCurrent" "drain eCurrent" "drain hCurrent"
    "drain TotalCurrent" "drain Charge" ]
  functions = [
    Time
    OuterVoltage InnerVoltage QuasiFermiPotential DisplacementCurrent eCurrent
    hCurrent TotalCurrent Charge OuterVoltage InnerVoltage
    QuasiFermiPotential DisplacementCurrent eCurrent hCurrent TotalCurrent
    Charge OuterVoltage InnerVoltage QuasiFermiPotential DisplacementCurrent
    eCurrent hCurrent TotalCurrent Charge OuterVoltage
    InnerVoltage QuasiFermiPotential DisplacementCurrent eCurrent hCurrent
    TotalCurrent Charge ]
}

Data {
      0.00000000000000E+00
      0.00000000000000E+00   0.00000000000000E+00   0.00000000000000E+00   0.00000000000000E+00  -4.64567369293584E-22
     -1.07101839138389E-34  -4.64567369293691E-22   5.18846523981782E-18   0.00000000000000E+00   0.00000000000000E+00
      0.00000000000000E+00   0.00000000000000E+00   0.00000000000000E+00   0.00000000000000E+00   0.00000000000000E+00
      2.39509012641966E-18   0.00000000000000E+00   0.00000000000000E+00   0.00000000000000E+00   0.00000000000000E+00
      7.50661751015550E-21   2.53343086041041E-34   7.50661751015576E-21  -1.23851627696622E-17   0.00000000000000E+00
      0.00000000000000E+00   0.00000000000000E+00   0.00000000000000E+00  -7.04205014086192E-21  -1.46241246902652E-34
     -7.04205014086207E-21   4.80160740342472E-18
      0.00000000000000E+00
      0.00000000000000E+00   0.00000000000000E+00   0.00000000000000E+00   0.00000000000000E+00  -2.98220380608748E-20
     -1.25124986352215E-34  -2.98220380608749E-20   5.18680904000536E-18   0.00000000000000E+00   0.00000000000000E+00
      0.00000000000000E+00   0.00000000000000E+00   0.00000000000000E+00   0.00000000000000E+00   0.00000000000000E+00
      2.38994480876542E-18   0.00000000000000E+00   0.00000000000000E+00   0.00000000000000E+00   0.00000000000000E+00
      2.78530380107754E-19   2.64486587639325E-34   2.78530380107755E-19  -1.23769899918560E-17   0.00000000000000E+00
      0.00000000000000E+00   0.00000000000000E+00   0.00000000000000E+00  -2.48708342046880E-19  -1.39361601287110E-34
     -2.48708342046880E-19   4.80023614308527E-18
      1.00000000000000E-03
      0.00000000000000E+00   2.99944689025351E-12   0.00000000000000E+00   0.00000000000000E+00  -1.42225394724628E-11
     -1.23934194243171E-34  -1.42225394724628E-11   5.18678319466736E-18   0.00000000000000E+00   0.00000000000000E+00
      0.00000000000000E+00   0.00000000000000E+00   0.00000000000000E+00   0.00000000000000E+00   0.00000000000000E+00
      2.38923133548183E-18   0.00000000000000E+00   0.00000000000000E+00   0.00000000000000E+00   0.00000000000000E+00
     -1.99080894821097E-19   2.43705953295008E-34  -1.99080894821097E-19  -1.23769501873867E-17   5.00000000000000E-05
      4.99999969842731E-05   0.00000000000000E+00   0.00000000000000E+00   1.42225396715438E-11  -1.19771759051837E-34
      1.42225396715438E-11   4.80093565723753E-18
      2.09333333333333E-03
      0.00000000000000E+00   6.26850527049812E-12   0.00000000000000E+00   0.00000000000000E+00  -2.97234844797618E-11
     -1.56428952473038E-34  -2.97234844797618E-11   5.18675493745658E-18   0.00000000000000E+00   0.00000000000000E+00
      0.00000000000000E+00   0.00000000000000E+00   0.00000000000000E+00   0.00000000000000E+00   0.00000000000000E+00
      2.38845128222983E-18   0.00000000000000E+00   0.00000000000000E+00   0.00000000000000E+00   0.00000000000000E+00
      1.16757578645389E-19   2.99257609329187E-34   1.16757578645390E-19  -1.23769066951757E-17   1.04666666666667E-04
      1.04666660364139E-04   0.00000000000000E+00   0.00000000000000E+00   2.97234843630042E-11  -1.42828656856149E-34
      2.97234843630042E-11   4.80170047548923E-18
      3.29600000000000E-03
      0.00000000000000E+00   9.85148811990579E-12   0.00000000000000E+00   0.00000000000000E+00  -4.67129609651407E-11
     -1.32373625078583E-34  -4.67129609651407E-11   5.18672385495913E-18   0.00000000000000E+00   0.00000000000000E+00
      0.00000000000000E+00   0.00000000000000E+00   0.00000000000000E+00   0.00000000000000E+00   0.00000000000000E+00
      2.38759323675762E-18   0.00000000000000E+00   0.00000000000000E+00   0.00000000000000E+00   0.00000000000000E+00
     -7.30903860357856E-20   2.79371498662317E-34  -7.30903860357854E-20  -1.23768588867083E-17   1.64800000000000E-04
      1.64799990095053E-04   0.00000000000000E+00   0.00000000000000E+00   4.67129610382311E-11  -1.46997873583734E-34
      4.67129610382311E-11   4.80254179499153E-18
      4.61893333333333E-03
      0.00000000000000E+00   1.37767350168848E-11   0.00000000000000E+00   0.00000000000000E+00  -6.53252452894112E-11
     -1.64205550567537E-34  -6.53252452894112E-11   5.18668966473863E-18   0.00000000000000E+00   0.00000000000000E+00
      0.00000000000000E+00   0.00000000000000E+00   0.00000000000000E+00   0.00000000000000E+00   0.00000000000000E+00
      2.38664940258024E-18   0.00000000000000E+00   0.00000000000000E+00   0.00000000000000E+00   0.00000000000000E+00
      2.46930733108798E-19   2.91235750955883E-34   2.46930733108798E-19  -1.23768063372515E-17   2.30946666666667E-04
      2.30946652815191E-04   0.00000000000000E+00   0.00000000000000E+00   6.53252450424805E-11  -1.27030200388346E-34
      6.53252450424805E-11   4.80346726993263E-18
      6.07416000000000E-03
      0.00000000000000E+00   1.80747965544345E-11   0.00000000000000E+00   0.00000000000000E+00  -8.57052307503573E-11
     -1.25466262650262E-34  -8.57052307503573E-11   5.18665205613406E-18   0.00000000000000E+00   0.00000000000000E+00
      0.00000000000000E+00   0.00000000000000E+00   0.00000000000000E+00   0.00000000000000E+00   0.00000000000000E+00
      2.38561120413380E-18   0.00000000000000E+00   0.00000000000000E+00   0.00000000000000E+00   0.00000000000000E+00
      1.07400927017013E-19   2.44508123342481E-34   1.07400927017013E-19  -1.23767485810363E-17   3.03708000000000E-04
      3.03707981827158E-04   0.00000000000000E+00   0.00000000000000E+00   8.57052306429564E-11  -1.19041860692219E-34
      8.57052306429564E-11   4.80448532076836E-18
      7.67490933333333E-03
      0.00000000000000E+00   2.27785514632507E-11   0.00000000000000E+00   0.00000000000000E+00  -1.08008779432369E-10
     -1.28880877609448E-34  -1.08008779432369E-10   5.18661068744151E-18   0.00000000000000E+00   0.00000000000000E+00
      0.00000000000000E+00   0.00000000000000E+00   0.00000000000000E+00   0.00000000000000E+00   0.00000000000000E+00
      2.38446920898582E-18   0.00000000000000E+00   0.00000000000000E+00   0.00000000000000E+00   0.00000000000000E+00
      2.35587099814257E-19   2.68581755828817E-34   2.35587099814257E-19  -1.23766851074528E-17   3.83745466666667E-04
      3.83745443764577E-04   0.00000000000000E+00   0.00000000000000E+00   1.08008779196782E-10  -1.39700878219369E-34
      1.08008779196782E-10   4.80560521102555E-18
      9.43573360000000E-03
      0.00000000000000E+00   2.79232714928701E-11   0.00000000000000E+00   0.00000000000000E+00  -1.32403043908157E-10
     -1.02469610932958E-34  -1.32403043908157E-10   5.18656518281472E-18   0.00000000000000E+00   0.00000000000000E+00
      0.00000000000000E+00   0.00000000000000E+00   0.00000000000000E+00   0.00000000000000E+00   0.00000000000000E+00
      2.38321304229052E-18   0.00000000000000E+00   0.00000000000000E+00   0.00000000000000E+00   0.00000000000000E+00
      1.05034996655976E-19   2.40713897865979E-34   1.05034996655976E-19  -1.23766153569275E-17   4.71786680000000E-04
      4.71786651925311E-04   0.00000000000000E+00   0.00000000000000E+00   1.32403043803122E-10  -1.38244286933022E-34
      1.32403043803122E-10   4.80683713182226E-18
      1.13726402933333E-02
      0.00000000000000E+00   3.35466357360790E-11   0.00000000000000E+00   0.00000000000000E+00  -1.59066695627967E-10
     -1.28722667692371E-34  -1.59066695627967E-10   5.18651512885665E-18   0.00000000000000E+00   0.00000000000000E+00
      0.00000000000000E+00   0.00000000000000E+00   0.00000000000000E+00   0.00000000000000E+00   0.00000000000000E+00
      2.38183129271892E-18   0.00000000000000E+00   0.00000000000000E+00   0.00000000000000E+00   0.00000000000000E+00
      8.60593029039396E-20   2.72831763558865E-34   8.60593029039399E-20  -1.23765387164597E-17   5.68632014666667E-04
      5.68631980938145E-04   0.00000000000000E+00   0.00000000000000E+00   1.59066695541907E-10  -1.44109095866493E-34
      1.59066695541907E-10   4.80819229488421E-18
      1.35032376560000E-02
      0.00000000000000E+00   3.96888148901402E-11   0.00000000000000E+00   0.00000000000000E+00  -1.88190013054388E-10
     -1.33327231180217E-34  -1.88190013054388E-10   5.18646007087142E-18   0.00000000000000E+00   0.00000000000000E+00
      0.00000000000000E+00   0.00000000000000E+00   0.00000000000000E+00   0.00000000000000E+00   0.00000000000000E+00
      2.38031140901707E-18   0.00000000000000E+00   0.00000000000000E+00   0.00000000000000E+00   0.00000000000000E+00
      2.21538539347429E-20   2.66916586764540E-34   2.21538539347432E-20  -1.23764545148047E-17   6.75161882800000E-04
      6.75161842896049E-04   0.00000000000000E+00   0.00000000000000E+00   1.88190013032234E-10  -1.33589355584322E-34
      1.88190013032234E-10   4.80968303491623E-18
      1.58468947549333E-02
      0.00000000000000E+00   4.63923760416063E-11   0.00000000000000E+00   0.00000000000000E+00  -2.19974787831120E-10
     -9.58026340226990E-35  -2.19974787831120E-10   5.18639950874298E-18   0.00000000000000E+00   0.00000000000000E+00
      0.00000000000000E+00   0.00000000000000E+00   0.00000000000000E+00   0.00000000000000E+00   0.00000000000000E+00
      2.37863958626211E-18   0.00000000000000E+00   0.00000000000000E+00   0.00000000000000E+00   0.00000000000000E+00
      3.80328740825340E-19   2.12656439720189E-34   3.80328740825340E-19  -1.23763620172798E-17   7.92344737746667E-04
      7.92344691102870E-04   0.00000000000000E+00   0.00000000000000E+00   2.19974787450791E-10  -1.16853805697490E-34
      2.19974787450791E-10   4.81132292227465E-18
      1.84249175637600E-02
      0.00000000000000E+00   5.37022531748909E-11   0.00000000000000E+00   0.00000000000000E+00  -2.54633986916694E-10
     -1.29396674875034E-34  -2.54633986916694E-10   5.18633289240313E-18   0.00000000000000E+00   0.00000000000000E+00
      0.00000000000000E+00   0.00000000000000E+00   0.00000000000000E+00   0.00000000000000E+00   0.00000000000000E+00
      2.37680064079445E-18   0.00000000000000E+00   0.00000000000000E+00   0.00000000000000E+00   0.00000000000000E+00
     -3.10070666820658E-17   2.50427372052173E-34  -3.10070666820658E-17  -1.23762604201817E-17   9.21245878188001E-04
      9.21245824194773E-04   0.00000000000000E+00   0.00000000000000E+00   2.54634017923760E-10  -1.21030697177140E-34
      2.54634017923760E-10   4.81312688698406E-18
      2.12607426534693E-02
      0.00000000000000E+00   6.16656216230402E-11   0.00000000000000E+00   0.00000000000000E+00  -2.92391116589915E-10
     -1.46050553376774E-34  -2.92391116589915E-10   5.18625961684875E-18   0.00000000000000E+00   0.00000000000000E+00
      0.00000000000000E+00   0.00000000000000E+00   0.00000000000000E+00   0.00000000000000E+00   0.00000000000000E+00
      2.37477787270440E-18   0.00000000000000E+00   0.00000000000000E+00   0.00000000000000E+00   0.00000000000000E+00
      8.41491930392848E-19   3.11924948614543E-34   8.41491930392848E-19  -1.23761488448021E-17   1.06303713267347E-03
      1.06303707067380E-03   0.00000000000000E+00   0.00000000000000E+00   2.92391115748424E-10  -1.65874395237769E-34
      2.92391115748424E-10   4.81511135524890E-18
      2.43801502521496E-02
      0.00000000000000E+00   7.03316671919716E-11   0.00000000000000E+00   0.00000000000000E+00  -3.33479213805284E-10
     -1.48081790138464E-34  -3.33479213805284E-10   5.18617901666285E-18   0.00000000000000E+00   0.00000000000000E+00
      0.00000000000000E+00   0.00000000000000E+00   0.00000000000000E+00   0.00000000000000E+00   0.00000000000000E+00
      2.37255291463854E-18   0.00000000000000E+00   0.00000000000000E+00   0.00000000000000E+00   0.00000000000000E+00
      1.32820009118452E-18   3.31750192345813E-34   1.32820009118452E-18  -1.23760263310282E-17   1.21900751260748E-03
      1.21900744189493E-03   0.00000000000000E+00   0.00000000000000E+00   3.33479212477084E-10  -1.83668402207349E-34
      3.33479212477084E-10   4.81729439972677E-18
      2.78114986106979E-02
      0.00000000000000E+00   7.97513022001399E-11   0.00000000000000E+00   0.00000000000000E+00  -3.78139377277302E-10
     -1.19047195357302E-34  -3.78139377277302E-10   5.18609035999106E-18   0.00000000000000E+00   0.00000000000000E+00
      0.00000000000000E+00   0.00000000000000E+00   0.00000000000000E+00   0.00000000000000E+00   0.00000000000000E+00
      2.37010556557574E-18   0.00000000000000E+00   0.00000000000000E+00   0.00000000000000E+00   0.00000000000000E+00
      1.87746946689482E-18   2.55410572140984E-34   1.87746946689482E-18  -1.23758918305315E-17   1.39057493053490E-03
      1.39057485035182E-03   0.00000000000000E+00   0.00000000000000E+00   3.78139375399832E-10  -1.36363376783682E-34
      3.78139375399832E-10   4.81969590496466E-18
      3.15859818051010E-02
      0.00000000000000E+00   8.99766953008911E-11   0.00000000000000E+00   0.00000000000000E+00  -4.26618753752625E-10
     -8.48846437052570E-35  -4.26618753752625E-10   5.18599284191910E-18   0.00000000000000E+00   0.00000000000000E+00
      0.00000000000000E+00   0.00000000000000E+00   0.00000000000000E+00   0.00000000000000E+00   0.00000000000000E+00
      2.36741360808354E-18   0.00000000000000E+00   0.00000000000000E+00   0.00000000000000E+00   0.00000000000000E+00
      2.99372252128269E-18   2.25952174524516E-34   2.99372252128269E-18  -1.23757441995415E-17   1.57929909025505E-03
      1.57929899979137E-03   0.00000000000000E+00   0.00000000000000E+00   4.26618750758902E-10  -1.41067530819259E-34
      4.26618750758902E-10   4.82233774953882E-18
      3.57379133189445E-02
      0.00000000000000E+00   1.01060748220245E-10   0.00000000000000E+00   0.00000000000000E+00  -4.79167854631301E-10
     -1.25797493930266E-34  -4.79167854631301E-10   5.18588557719245E-18   0.00000000000000E+00   0.00000000000000E+00
      0.00000000000000E+00   0.00000000000000E+00   0.00000000000000E+00   0.00000000000000E+00   0.00000000000000E+00
      2.36445260742714E-18   0.00000000000000E+00   0.00000000000000E+00   0.00000000000000E+00   0.00000000000000E+00
     -1.18302982844559E-18   2.49064657396374E-34  -1.18302982844559E-18  -1.23755821912232E-17   1.78689566594722E-03
      1.78689556433967E-03   0.00000000000000E+00   0.00000000000000E+00   4.79167855814331E-10  -1.23267163466108E-34
      4.79167855814331E-10   4.82524400660357E-18
      4.03050379841723E-02
      0.00000000000000E+00   1.13056380379077E-10   0.00000000000000E+00   0.00000000000000E+00  -5.36037141532279E-10
     -9.84127531501492E-35  -5.36037141532279E-10   5.18576759221245E-18   0.00000000000000E+00   0.00000000000000E+00
      0.00000000000000E+00   0.00000000000000E+00   0.00000000000000E+00   0.00000000000000E+00   0.00000000000000E+00
      2.36119569073009E-18   0.00000000000000E+00   0.00000000000000E+00   0.00000000000000E+00   0.00000000000000E+00
     -4.11668258547405E-17   2.53416696342489E-34  -4.11668258547405E-17  -1.23754044476666E-17   2.01525189920861E-03
      2.01525178554073E-03   0.00000000000000E+00   0.00000000000000E+00   5.36037182699104E-10  -1.55003943192340E-34
      5.36037182699104E-10   4.82844116472403E-18
      4.53288751159228E-02
      0.00000000000000E+00   1.26015583482159E-10   0.00000000000000E+00   0.00000000000000E+00  -5.97472684614402E-10
     -8.85679161137877E-35  -5.97472684614402E-10   5.18563781623874E-18   0.00000000000000E+00   0.00000000000000E+00
      0.00000000000000E+00   0.00000000000000E+00   0.00000000000000E+00   0.00000000000000E+00   0.00000000000000E+00
      2.35761330423452E-18   0.00000000000000E+00   0.00000000000000E+00   0.00000000000000E+00   0.00000000000000E+00
      9.02098797549070E-18   2.06918155001587E-34   9.02098797549070E-18  -1.23752094915454E-17   2.26644375579614E-03
      2.26644362909922E-03   0.00000000000000E+00   0.00000000000000E+00   5.97472675593414E-10  -1.18350238887799E-34
      5.97472675593414E-10   4.83195837107206E-18
      5.08550959608485E-02
      0.00000000000000E+00   1.39988321066530E-10   0.00000000000000E+00   0.00000000000000E+00  -6.63710806346964E-10
     -1.43864511965489E-34  -6.63710806346964E-10   5.18549507171885E-18   0.00000000000000E+00   0.00000000000000E+00
      0.00000000000000E+00   0.00000000000000E+00   0.00000000000000E+00   0.00000000000000E+00   0.00000000000000E+00
      2.35367294649751E-18   0.00000000000000E+00   0.00000000000000E+00   0.00000000000000E+00   0.00000000000000E+00
      1.30812336613318E-17   2.88465099108663E-34   1.30812336613318E-17  -1.23749957174926E-17   2.54275479804242E-03
      2.54275465729751E-03   0.00000000000000E+00   0.00000000000000E+00   6.63710793265730E-10  -1.44600587143174E-34
      6.63710793265730E-10   4.83582769927623E-18
      5.69339388902666E-02
      0.00000000000000E+00   1.55021131450363E-10   0.00000000000000E+00   0.00000000000000E+00  -7.34971504700459E-10
     -1.02899985754550E-34  -7.34971504700459E-10   5.18533806365934E-18   0.00000000000000E+00   0.00000000000000E+00
      0.00000000000000E+00   0.00000000000000E+00   0.00000000000000E+00   0.00000000000000E+00   0.00000000000000E+00
      2.34933887516096E-18   0.00000000000000E+00   0.00000000000000E+00   0.00000000000000E+00   0.00000000000000E+00
      1.95475010496695E-17   2.34436407069287E-34   1.95475010496695E-17  -1.23747613832727E-17   2.84669694451333E-03
      2.84669678865473E-03   0.00000000000000E+00   0.00000000000000E+00   7.34971485152958E-10  -1.31536421314737E-34
      7.34971485152958E-10   4.84008444445236E-18
      6.36206661126266E-02
      0.00000000000000E+00   1.71155514973080E-10   0.00000000000000E+00   0.00000000000000E+00  -8.11450854084935E-10
     -1.13524973170478E-34  -8.11450854084935E-10   5.18516536794369E-18   0.00000000000000E+00   0.00000000000000E+00
      0.00000000000000E+00   0.00000000000000E+00   0.00000000000000E+00   0.00000000000000E+00   0.00000000000000E+00
      2.34457178467511E-18   0.00000000000000E+00   0.00000000000000E+00   0.00000000000000E+00   0.00000000000000E+00
      2.80723488963738E-17   2.21570131259820E-34   2.80723488963738E-17  -1.23745046008340E-17   3.18103330563133E-03
      3.18103313355161E-03   0.00000000000000E+00   0.00000000000000E+00   8.11450826012586E-10  -1.08045158089342E-34
      8.11450826012586E-10   4.84476744821522E-18
      7.09760660572226E-02
      0.00000000000000E+00   1.88426014524604E-10   0.00000000000000E+00   0.00000000000000E+00  -8.93311918810667E-10
     -1.34625223503732E-34  -8.93311918810667E-10   5.18497541849453E-18   0.00000000000000E+00   0.00000000000000E+00
      0.00000000000000E+00   0.00000000000000E+00   0.00000000000000E+00   0.00000000000000E+00   0.00000000000000E+00
      2.33932845216822E-18   0.00000000000000E+00   0.00000000000000E+00   0.00000000000000E+00   0.00000000000000E+00
      1.83724723413181E-16   2.63728010129042E-34   1.83724723413181E-16  -1.23742233274208E-17   3.54880330286113E-03
      3.54880311341814E-03   0.00000000000000E+00   0.00000000000000E+00   8.93311735085944E-10  -1.29102786625310E-34
      8.93311735085944E-10   4.84991945675806E-18
      7.90670059962782E-02
      0.00000000000000E+00   2.06858003688161E-10   0.00000000000000E+00   0.00000000000000E+00  -9.80673662955944E-10
     -1.34138402770653E-34  -9.80673662955944E-10   5.18476649316206E-18   0.00000000000000E+00   0.00000000000000E+00
      0.00000000000000E+00   0.00000000000000E+00   0.00000000000000E+00   0.00000000000000E+00   0.00000000000000E+00
      2.33356134824030E-18   0.00000000000000E+00   0.00000000000000E+00   0.00000000000000E+00   0.00000000000000E+00
      3.54035493117280E-17   2.57934150682812E-34   3.54035493117280E-17  -1.23739153567874E-17   3.95335029981391E-03
      3.95335009184002E-03   0.00000000000000E+00   0.00000000000000E+00   9.80673627552394E-10  -1.23795747912159E-34
      9.80673627552394E-10   4.85558751538508E-18
      8.79670399292394E-02
      0.00000000000000E+00   2.26465127726819E-10   0.00000000000000E+00   0.00000000000000E+00  -1.07360019091807E-09
     -1.10867382899966E-34  -1.07360019091807E-09   5.18453669822379E-18   0.00000000000000E+00   0.00000000000000E+00
      0.00000000000000E+00   0.00000000000000E+00   0.00000000000000E+00   0.00000000000000E+00   0.00000000000000E+00
      2.32721820944414E-18   0.00000000000000E+00   0.00000000000000E+00   0.00000000000000E+00   0.00000000000000E+00
      8.75978843975223E-17   2.58060604521417E-34   8.75978843975223E-17  -1.23735783110246E-17   4.39835199646197E-03
      4.39835176877586E-03   0.00000000000000E+00   0.00000000000000E+00   1.07360010332019E-09  -1.47193221621451E-34
      1.07360010332019E-09   4.86182340335668E-18
      9.77570772554967E-02
      0.00000000000000E+00   2.47246474934103E-10   0.00000000000000E+00   0.00000000000000E+00  -1.17208589922326E-09
     -1.24182039429961E-34  -1.17208589922326E-09   5.18428395134889E-18   0.00000000000000E+00   0.00000000000000E+00
      0.00000000000000E+00   0.00000000000000E+00   0.00000000000000E+00   0.00000000000000E+00   0.00000000000000E+00
      2.32024156849711E-18   0.00000000000000E+00   0.00000000000000E+00   0.00000000000000E+00   0.00000000000000E+00
      2.44053147545503E-19   2.69438941350484E-34   2.44053147545503E-19  -1.23732096329864E-17   4.88785386277484E-03
      4.88785361419615E-03   0.00000000000000E+00   0.00000000000000E+00   1.17208589897921E-09  -1.45256901920523E-34
      1.17208589897921E-09   4.86868411314043E-18
      1.07757077255497E-01
      0.00000000000000E+00   2.67648328955980E-10   0.00000000000000E+00   0.00000000000000E+00  -1.26876754351430E-09
     -1.45932537447772E-34  -1.26876754351430E-09   5.18402581350983E-18   0.00000000000000E+00   0.00000000000000E+00
      0.00000000000000E+00   0.00000000000000E+00   0.00000000000000E+00   0.00000000000000E+00   0.00000000000000E+00
      2.31311617397718E-18   0.00000000000000E+00   0.00000000000000E+00   0.00000000000000E+00   0.00000000000000E+00
      1.02256096339373E-16   2.54835196420470E-34   1.02256096339373E-16  -1.23728352764305E-17   5.38785386277483E-03
      5.38785359368515E-03   0.00000000000000E+00   0.00000000000000E+00   1.26876744125820E-09  -1.08902658972698E-34
      1.26876744125820E-09   4.87569328894345E-18
      1.17757077255497E-01
      0.00000000000000E+00   2.87242895544009E-10   0.00000000000000E+00   0.00000000000000E+00  -1.36161779759632E-09
     -1.30453302193471E-34  -1.36161779759632E-09   5.18376770534171E-18   0.00000000000000E+00   0.00000000000000E+00
      0.00000000000000E+00   0.00000000000000E+00   0.00000000000000E+00   0.00000000000000E+00   0.00000000000000E+00
      2.30599165330338E-18   0.00000000000000E+00   0.00000000000000E+00   0.00000000000000E+00   0.00000000000000E+00
      1.47771394920944E-16   2.27931249724366E-34   1.47771394920944E-16  -1.23724631583367E-17   5.88785386277483E-03
      5.88785357398594E-03   0.00000000000000E+00   0.00000000000000E+00   1.36161764982492E-09  -9.74779475308947E-35
      1.36161764982492E-09   4.88270379969162E-18
      1.27757077255497E-01
      0.00000000000000E+00   3.06056732994261E-10   0.00000000000000E+00   0.00000000000000E+00  -1.45076343500422E-09
     -1.05450523158213E-34  -1.45076343500422E-09   5.18350962661013E-18   0.00000000000000E+00   0.00000000000000E+00
      0.00000000000000E+00   0.00000000000000E+00   0.00000000000000E+00   0.00000000000000E+00   0.00000000000000E+00
      2.29886799968429E-18   0.00000000000000E+00   0.00000000000000E+00   0.00000000000000E+00   0.00000000000000E+00
      1.60777949165766E-16   2.31581962538268E-34   1.60777949165766E-16  -1.23720932651807E-17   6.38785386277483E-03
      6.38785355507175E-03   0.00000000000000E+00   0.00000000000000E+00   1.45076327422627E-09  -1.26131439380055E-34
      1.45076327422627E-09   4.88971563888629E-18
      1.37757077255497E-01
      0.00000000000000E+00   3.24116071826640E-10   0.00000000000000E+00   0.00000000000000E+00  -1.53632922985093E-09
     -1.23219493628097E-34  -1.53632922985093E-09   5.18325157707848E-18   0.00000000000000E+00   0.00000000000000E+00
      0.00000000000000E+00   0.00000000000000E+00   0.00000000000000E+00   0.00000000000000E+00   0.00000000000000E+00
      2.29174520635909E-18   0.00000000000000E+00   0.00000000000000E+00   0.00000000000000E+00   0.00000000000000E+00
     -1.80948809399636E-19   2.36841642089848E-34  -1.80948809399636E-19  -1.23717255835043E-17   6.88785386277483E-03
      6.88785353691624E-03   0.00000000000000E+00   0.00000000000000E+00   1.53632923003188E-09  -1.13622148461751E-34
      1.53632923003188E-09   4.89672880006671E-18
      1.47757077255497E-01
      0.00000000000000E+00   3.41446681652136E-10   0.00000000000000E+00   0.00000000000000E+00  -1.61843842586424E-09
     -1.40358340621506E-34  -1.61843842586424E-09   5.18299355651284E-18   0.00000000000000E+00   0.00000000000000E+00
      0.00000000000000E+00   0.00000000000000E+00   0.00000000000000E+00   0.00000000000000E+00   0.00000000000000E+00
      2.28462326668638E-18   0.00000000000000E+00   0.00000000000000E+00   0.00000000000000E+00   0.00000000000000E+00
      1.48990812584632E-16   2.68205100216980E-34   1.48990812584632E-16  -1.23713601000306E-17   7.38785386277483E-03
      7.38785351949334E-03   0.00000000000000E+00   0.00000000000000E+00   1.61843827687342E-09  -1.27846759595474E-34
      1.61843827687342E-09   4.90374327683135E-18
      1.57757077255497E-01
      0.00000000000000E+00   3.58073855163196E-10   0.00000000000000E+00   0.00000000000000E+00  -1.69721094754194E-09
     -1.17881548232321E-34  -1.69721094754194E-09   5.18273556467320E-18   0.00000000000000E+00   0.00000000000000E+00
      0.00000000000000E+00   0.00000000000000E+00   0.00000000000000E+00   0.00000000000000E+00   0.00000000000000E+00
      2.27750217401338E-18   0.00000000000000E+00   0.00000000000000E+00   0.00000000000000E+00   0.00000000000000E+00
      1.40153407773190E-16   2.17774319178079E-34   1.40153407773190E-16  -1.23709968014823E-17   7.88785386277484E-03
      7.88785350277778E-03   0.00000000000000E+00   0.00000000000000E+00   1.69721080738853E-09  -9.98927709457590E-35
      1.69721080738853E-09   4.91075906279567E-18
      1.67757077255497E-01
      0.00000000000000E+00   3.74022304492415E-10   0.00000000000000E+00   0.00000000000000E+00  -1.77276470722810E-09
     -1.27990569524981E-34  -1.77276470722810E-09   5.18247760132194E-18   0.00000000000000E+00   0.00000000000000E+00
      0.00000000000000E+00   0.00000000000000E+00   0.00000000000000E+00   0.00000000000000E+00   0.00000000000000E+00
      2.27038192180166E-18   0.00000000000000E+00   0.00000000000000E+00   0.00000000000000E+00   0.00000000000000E+00
      1.52757151512007E-16   2.23688559240153E-34   1.52757151512007E-16  -1.23706356747563E-17   8.38785386277484E-03
      8.38785348674466E-03   0.00000000000000E+00   0.00000000000000E+00   1.77276455447095E-09  -9.56979897151715E-35
      1.77276455447095E-09   4.91777615163269E-18
      1.77757077255497E-01
      0.00000000000000E+00   3.89316181435230E-10   0.00000000000000E+00   0.00000000000000E+00  -1.84521472660297E-09
     -1.06497144725022E-34  -1.84521472660297E-09   5.18221966621938E-18   0.00000000000000E+00   0.00000000000000E+00
      0.00000000000000E+00   0.00000000000000E+00   0.00000000000000E+00   0.00000000000000E+00   0.00000000000000E+00
      2.26326250349511E-18   0.00000000000000E+00   0.00000000000000E+00   0.00000000000000E+00   0.00000000000000E+00
      7.43678552059224E-17   2.09799312498710E-34   7.43678552059224E-17  -1.23702767067422E-17   8.88785386277484E-03
      8.88785347136967E-03   0.00000000000000E+00   0.00000000000000E+00   1.84521465223512E-09  -1.03302167773688E-34
      1.84521465223512E-09   4.92479453702774E-18
      1.87757077255497E-01
      0.00000000000000E+00   4.03979151599798E-10   0.00000000000000E+00   0.00000000000000E+00  -1.91467368107965E-09
     -1.40238690147334E-34  -1.91467368107965E-09   5.18196175912247E-18   0.00000000000000E+00   0.00000000000000E+00
      0.00000000000000E+00   0.00000000000000E+00   0.00000000000000E+00   0.00000000000000E+00   0.00000000000000E+00
      2.25614391247502E-18   0.00000000000000E+00   0.00000000000000E+00   0.00000000000000E+00   0.00000000000000E+00
      1.34612701671241E-16   2.49134715851322E-34   1.34612701671241E-16  -1.23699198842711E-17   9.38785386277484E-03
      9.38785345662901E-03   0.00000000000000E+00   0.00000000000000E+00   1.91467354646695E-09  -1.08896025703988E-34
      1.91467354646695E-09   4.93181421267362E-18
      1.97757077255497E-01
      0.00000000000000E+00   4.18034202291402E-10   0.00000000000000E+00   0.00000000000000E+00  -1.98125090435683E-09