DF-ISE text

Info {
  version   = 1.0
  type      = xyplot
  datasets  = [
    "time"
    "source OuterVoltage" "source InnerVoltage" "source QuasiFermiPotential" "source DisplacementCurrent" "source eCurrent"
    "source hCurrent" "source TotalCurrent" "source Charge" "gate OuterVoltage" "gate InnerVoltage"
    "gate QuasiFermiPotential" "gate DisplacementCurrent" "gate eCurrent" "gate hCurrent" "gate TotalCurrent"
    "gate Charge" "substrate OuterVoltage" "substrate InnerVoltage" "substrate QuasiFermiPotential" "substrate DisplacementCurrent"
    "substrate eCurrent" "substrate hCurrent" "substrate TotalCurrent" "substrate Charge" "drain OuterVoltage"
    "drain InnerVoltage" "drain QuasiFermiPotential" "drain DisplacementCurrent" "drain eCurrent" "drain hCurrent"
    "drain TotalCurrent" "drain Charge" ]
  functions = [
    Time
    OuterVoltage InnerVoltage QuasiFermiPotential DisplacementCurrent eCurrent
    hCurrent TotalCurrent Charge OuterVoltage InnerVoltage
    QuasiFermiPotential DisplacementCurrent eCurrent hCurrent TotalCurrent
    Charge OuterVoltage InnerVoltage QuasiFermiPotential DisplacementCurrent
    eCurrent hCurrent TotalCurrent Charge OuterVoltage
    InnerVoltage QuasiFermiPotential DisplacementCurrent eCurrent hCurrent
    TotalCurrent Charge ]
}

Data {
      0.00000000000000E+00
      0.00000000000000E+00   0.00000000000000E+00   0.00000000000000E+00   0.00000000000000E+00   1.15622189428024E-20
      5.19507688991510E-34   1.15622189428030E-20   5.16926004507533E-18   0.00000000000000E+00   0.00000000000000E+00
      0.00000000000000E+00   0.00000000000000E+00   0.00000000000000E+00   0.00000000000000E+00   0.00000000000000E+00
      2.00840164259102E-18   0.00000000000000E+00   0.00000000000000E+00   0.00000000000000E+00   0.00000000000000E+00
     -2.82255040298684E-20  -9.90427134163939E-34  -2.82255040298694E-20  -1.20201835195483E-17   0.00000000000000E+00
      0.00000000000000E+00   0.00000000000000E+00   0.00000000000000E+00   1.66632850870660E-20   4.70919445172429E-34
      1.66632850870664E-20   4.84252183188196E-18
      0.00000000000000E+00
      0.00000000000000E+00   0.00000000000000E+00   0.00000000000000E+00   0.00000000000000E+00  -1.64729055422693E-19
      5.38210256074776E-34  -1.64729055422693E-19   5.16742794542724E-18   0.00000000000000E+00   0.00000000000000E+00
      0.00000000000000E+00   0.00000000000000E+00   0.00000000000000E+00   0.00000000000000E+00   0.00000000000000E+00
      2.00330001376723E-18   0.00000000000000E+00   0.00000000000000E+00   0.00000000000000E+00   0.00000000000000E+00
      4.44285274876349E-19  -1.04918190314859E-33   4.44285274876348E-19  -1.20117192411520E-17   0.00000000000000E+00
      0.00000000000000E+00   0.00000000000000E+00   0.00000000000000E+00  -2.79556219453655E-19   5.10971647073812E-34
     -2.79556219453655E-19   4.84099128195751E-18
      1.00000000000000E-03
      0.00000000000000E+00   2.91865612529189E-12   0.00000000000000E+00   0.00000000000000E+00  -1.49331587120617E-11
      5.01890134535020E-34  -1.49331587120617E-11   5.16739509989508E-18   0.00000000000000E+00   0.00000000000000E+00
      0.00000000000000E+00   0.00000000000000E+00   0.00000000000000E+00   0.00000000000000E+00   0.00000000000000E+00
      2.00262096573879E-18   0.00000000000000E+00   0.00000000000000E+00   0.00000000000000E+00   0.00000000000000E+00
     -2.03545964974188E-19  -1.00054700019546E-33  -2.03545964974189E-19  -1.20116791563520E-17   5.00000000000000E-05
      4.99999970688106E-05   0.00000000000000E+00   0.00000000000000E+00   1.49331589156076E-11   4.98656865660439E-34
      1.49331589156076E-11   4.84166309071817E-18
      2.09333333333333E-03
      0.00000000000000E+00   6.09949670553873E-12   0.00000000000000E+00   0.00000000000000E+00  -3.12077367905124E-11
      5.38476961668782E-34  -3.12077367905124E-11   5.16735918925933E-18   0.00000000000000E+00   0.00000000000000E+00
      0.00000000000000E+00   0.00000000000000E+00   0.00000000000000E+00   0.00000000000000E+00   0.00000000000000E+00
      2.00187854955276E-18   0.00000000000000E+00   0.00000000000000E+00   0.00000000000000E+00   0.00000000000000E+00
      4.54404964637746E-20  -1.02241643377287E-33   4.54404964637736E-20  -1.20116353565424E-17   1.04666666666667E-04
      1.04666660540986E-04   0.00000000000000E+00   0.00000000000000E+00   3.12077367450719E-11   4.83939472104090E-34
      3.12077367450719E-11   4.84239761773034E-18
      3.29600000000000E-03
      0.00000000000000E+00   9.58553238294580E-12   0.00000000000000E+00   0.00000000000000E+00  -4.90438385974575E-11
      5.43579238125934E-34  -4.90438385974575E-11   5.16731968814113E-18   0.00000000000000E+00   0.00000000000000E+00
      0.00000000000000E+00   0.00000000000000E+00   0.00000000000000E+00   0.00000000000000E+00   0.00000000000000E+00
      2.00106190339179E-18   0.00000000000000E+00   0.00000000000000E+00   0.00000000000000E+00   0.00000000000000E+00
      1.93906418149197E-19  -1.03292810370554E-33   1.93906418149196E-19  -1.20115872083879E-17   1.64800000000000E-04
      1.64799990373336E-04   0.00000000000000E+00   0.00000000000000E+00   4.90438384035511E-11   4.89348865579609E-34
      4.90438384035511E-11   4.84320561685496E-18
      4.61893333333333E-03
      0.00000000000000E+00   1.34042073579068E-11   0.00000000000000E+00   0.00000000000000E+00  -6.85818591704467E-11
      5.15095687077271E-34  -6.85818591704467E-11   5.16727623761606E-18   0.00000000000000E+00   0.00000000000000E+00
      0.00000000000000E+00   0.00000000000000E+00   0.00000000000000E+00   0.00000000000000E+00   0.00000000000000E+00
      2.00016360669129E-18   0.00000000000000E+00   0.00000000000000E+00   0.00000000000000E+00   0.00000000000000E+00
      1.01587050809608E-20  -9.86557336737107E-34   1.01587050809598E-20  -1.20115342836709E-17   2.30946666666667E-04
      2.30946653204950E-04   0.00000000000000E+00   0.00000000000000E+00   6.85818591602880E-11   4.71461649659837E-34
      6.85818591602880E-11   4.84409443936357E-18
      6.07416000000000E-03
      0.00000000000000E+00   1.75851229409946E-11   0.00000000000000E+00   0.00000000000000E+00  -8.99732092186830E-11
      5.14135512262969E-34  -8.99732092186830E-11   5.16722844289289E-18   0.00000000000000E+00   0.00000000000000E+00
      0.00000000000000E+00   0.00000000000000E+00   0.00000000000000E+00   0.00000000000000E+00   0.00000000000000E+00
      1.99917549733696E-18   0.00000000000000E+00   0.00000000000000E+00   0.00000000000000E+00   0.00000000000000E+00
      5.69165488793805E-19  -1.01105035454095E-33   5.69165488793804E-19  -1.20114761127334E-17   3.03708000000000E-04
      3.03707982339454E-04   0.00000000000000E+00   0.00000000000000E+00   8.99732086495174E-11   4.96914842277978E-34
      8.99732086495174E-11   4.84507217250352E-18
      7.67490933333333E-03
      0.00000000000000E+00   2.21600913359158E-11   0.00000000000000E+00   0.00000000000000E+00  -1.13380643695342E-10
      5.33642141840295E-34  -1.13380643695342E-10   5.16717586973229E-18   0.00000000000000E+00   0.00000000000000E+00
      0.00000000000000E+00   0.00000000000000E+00   0.00000000000000E+00   0.00000000000000E+00   0.00000000000000E+00
      1.99808859761491E-18   0.00000000000000E+00   0.00000000000000E+00   0.00000000000000E+00   0.00000000000000E+00
      9.28942328538635E-20  -1.01410981625048E-33   9.28942328538625E-20  -1.20114121806193E-17   3.83745466666667E-04
      3.83745444411537E-04   0.00000000000000E+00   0.00000000000000E+00   1.13380643602448E-10   4.80467674410188E-34
      1.13380643602448E-10   4.84614771327207E-18
      9.43573360000000E-03
      0.00000000000000E+00   2.71632134179364E-11   0.00000000000000E+00   0.00000000000000E+00  -1.38978557446412E-10
      5.25454764951946E-34  -1.38978557446412E-10   5.16711804050870E-18   0.00000000000000E+00   0.00000000000000E+00
      0.00000000000000E+00   0.00000000000000E+00   0.00000000000000E+00   0.00000000000000E+00   0.00000000000000E+00
      1.99689303277855E-18   0.00000000000000E+00   0.00000000000000E+00   0.00000000000000E+00   0.00000000000000E+00
      3.13150547045421E-19  -1.01214954879948E-33   3.13150547045420E-19  -1.20113419228920E-17   4.71786680000000E-04
      4.71786652720315E-04   0.00000000000000E+00   0.00000000000000E+00   1.38978557133261E-10   4.86694783847529E-34
      1.38978557133261E-10   4.84733084960479E-18
      1.13726402933333E-02
      0.00000000000000E+00   3.26308861807527E-11   0.00000000000000E+00   0.00000000000000E+00  -1.66953173252141E-10
      5.10059176217041E-34  -1.66953173252141E-10   5.16705442987945E-18   0.00000000000000E+00   0.00000000000000E+00
      0.00000000000000E+00   0.00000000000000E+00   0.00000000000000E+00   0.00000000000000E+00   0.00000000000000E+00
      1.99557794149788E-18   0.00000000000000E+00   0.00000000000000E+00   0.00000000000000E+00   0.00000000000000E+00
      2.12957363901871E-19  -9.91585301550923E-34   2.12957363901870E-19  -1.20112647211040E-17   5.68632014666667E-04
      5.68631981895899E-04   0.00000000000000E+00   0.00000000000000E+00   1.66953173039184E-10   4.81526125333882E-34
      1.66953173039184E-10   4.84863234972665E-18
      1.35032376560000E-02
      0.00000000000000E+00   3.86018432805643E-11   0.00000000000000E+00   0.00000000000000E+00  -1.97502579316567E-10
      5.31855144627932E-34  -1.97502579316567E-10   5.16698446002255E-18   0.00000000000000E+00   0.00000000000000E+00
      0.00000000000000E+00   0.00000000000000E+00   0.00000000000000E+00   0.00000000000000E+00   0.00000000000000E+00
      1.99413137738538E-18   0.00000000000000E+00   0.00000000000000E+00   0.00000000000000E+00   0.00000000000000E+00
      2.63725779483934E-19  -1.02059939955877E-33   2.63725779483933E-19  -1.20111798978999E-17   6.75161882800000E-04
      6.75161844032729E-04   0.00000000000000E+00   0.00000000000000E+00   1.97502579052841E-10   4.88744254930834E-34
      1.97502579052841E-10   4.85006406049195E-18
      1.58468947549333E-02
      0.00000000000000E+00   4.51171012531199E-11   0.00000000000000E+00   0.00000000000000E+00  -2.30836560051191E-10
      5.64240780832079E-34  -2.30836560051191E-10   5.16690749540011E-18   0.00000000000000E+00   0.00000000000000E+00
      0.00000000000000E+00   0.00000000000000E+00   0.00000000000000E+00   0.00000000000000E+00   0.00000000000000E+00
      1.99254020071193E-18   0.00000000000000E+00   0.00000000000000E+00   0.00000000000000E+00   0.00000000000000E+00
      3.95995772546096E-19  -1.04898185788736E-33   3.95995772546095E-19  -1.20110867117343E-17   7.92344737746667E-04
      7.92344692436282E-04   0.00000000000000E+00   0.00000000000000E+00   2.30836559655195E-10   4.84741077055280E-34
      2.30836559655195E-10   4.85163901562226E-18
      1.84249175637600E-02
      0.00000000000000E+00   5.22198792530013E-11   0.00000000000000E+00   0.00000000000000E+00  -2.67176166390967E-10
      5.43595474551851E-34  -2.67176166390967E-10   5.16682283700059E-18   0.00000000000000E+00   0.00000000000000E+00
      0.00000000000000E+00   0.00000000000000E+00   0.00000000000000E+00   0.00000000000000E+00   0.00000000000000E+00
      1.99078995933968E-18   0.00000000000000E+00   0.00000000000000E+00   0.00000000000000E+00   0.00000000000000E+00
      6.27732386972178E-19  -9.98766476478359E-34   6.27732386972177E-19  -1.20109843511856E-17   9.21245878188001E-04
      9.21245825744485E-04   0.00000000000000E+00   0.00000000000000E+00   2.67176165763235E-10   4.55171001926507E-34
      2.67176165763235E-10   4.85337155484532E-18
      2.12607426534693E-02
      0.00000000000000E+00   5.99554567356516E-11   0.00000000000000E+00   0.00000000000000E+00  -3.06752952476039E-10
      5.48032505574355E-34  -3.06752952476039E-10   5.16672971600766E-18   0.00000000000000E+00   0.00000000000000E+00
      0.00000000000000E+00   0.00000000000000E+00   0.00000000000000E+00   0.00000000000000E+00   0.00000000000000E+00
      1.98886475780211E-18   0.00000000000000E+00   0.00000000000000E+00   0.00000000000000E+00   0.00000000000000E+00
      8.19100292497417E-19  -1.04423140122727E-33   8.19100292497416E-19  -1.20108719288507E-17   1.06303713267347E-03
      1.06303707246132E-03   0.00000000000000E+00   0.00000000000000E+00   3.06752951656939E-10   4.96198895652913E-34
      3.06752951656939E-10   4.85527745504095E-18
      2.43801502521496E-02
      0.00000000000000E+00   6.83709649449997E-11   0.00000000000000E+00   0.00000000000000E+00  -3.49807811961445E-10
      5.39209232964929E-34  -3.49807811961445E-10   5.16662728683975E-18   0.00000000000000E+00   0.00000000000000E+00
      0.00000000000000E+00   0.00000000000000E+00   0.00000000000000E+00   0.00000000000000E+00   0.00000000000000E+00
      1.98674711335776E-18   0.00000000000000E+00   0.00000000000000E+00   0.00000000000000E+00   0.00000000000000E+00
      8.11229453502606E-19  -1.00190025814480E-33   8.11229453502605E-19  -1.20107484748114E-17   1.21900751260748E-03
      1.21900744394392E-03   0.00000000000000E+00   0.00000000000000E+00   3.49807811150216E-10   4.62691025179872E-34
      3.49807811150216E-10   4.85737407461392E-18
      2.78114986106979E-02
      0.00000000000000E+00   7.75149889195980E-11   0.00000000000000E+00   0.00000000000000E+00  -3.96589317313182E-10
      5.29875975431813E-34  -3.96589317313182E-10   5.16651461949735E-18   0.00000000000000E+00   0.00000000000000E+00
      0.00000000000000E+00   0.00000000000000E+00   0.00000000000000E+00   0.00000000000000E+00   0.00000000000000E+00
      1.98441779772669E-18   0.00000000000000E+00   0.00000000000000E+00   0.00000000000000E+00   0.00000000000000E+00
      2.11677436474747E-18  -1.00973471573336E-33   2.11677436474747E-18  -1.20106129296619E-17   1.39057493053490E-03
      1.39057485268831E-03   0.00000000000000E+00   0.00000000000000E+00   3.96589315196407E-10   4.79858740301552E-34
      3.96589315196407E-10   4.85968051243787E-18
      3.15859818051010E-02
      0.00000000000000E+00   8.74372216268564E-11   0.00000000000000E+00   0.00000000000000E+00  -4.47351465830626E-10
      5.52051387350541E-34  -4.47351465830626E-10   5.16639069114961E-18   0.00000000000000E+00   0.00000000000000E+00
      0.00000000000000E+00   0.00000000000000E+00   0.00000000000000E+00   0.00000000000000E+00   0.00000000000000E+00
      1.98185566309451E-18   0.00000000000000E+00   0.00000000000000E+00   0.00000000000000E+00   0.00000000000000E+00
      3.08425367288594E-18  -1.01824564651510E-33   3.08425367288594E-18  -1.20104641371008E-17   1.57929909025505E-03
      1.57929900244395E-03   0.00000000000000E+00   0.00000000000000E+00   4.47351462746372E-10   4.66194259164557E-34
      4.47351462746372E-10   4.86221778285670E-18
      3.57379133189445E-02
      0.00000000000000E+00   9.81878558019437E-11   0.00000000000000E+00   0.00000000000000E+00  -5.02350714811293E-10
      5.31916459661315E-34  -5.02350714811293E-10   5.16625437688587E-18   0.00000000000000E+00   0.00000000000000E+00
      0.00000000000000E+00   0.00000000000000E+00   0.00000000000000E+00   0.00000000000000E+00   0.00000000000000E+00
      1.97903745083123E-18   0.00000000000000E+00   0.00000000000000E+00   0.00000000000000E+00   0.00000000000000E+00
      4.67264985115550E-18  -9.92746427204426E-34   4.67264985115550E-18  -1.20103008360983E-17   1.78689566594722E-03
      1.78689556733972E-03   0.00000000000000E+00   0.00000000000000E+00   5.02350710138643E-10   4.60829967543111E-34
      5.02350710138643E-10   4.86500900838127E-18
      4.03050379841723E-02
      0.00000000000000E+00   1.09816811128107E-10   0.00000000000000E+00   0.00000000000000E+00  -5.61842217464956E-10
      5.24837928934343E-34  -5.61842217464956E-10   5.16610443954888E-18   0.00000000000000E+00   0.00000000000000E+00
      0.00000000000000E+00   0.00000000000000E+00   0.00000000000000E+00   0.00000000000000E+00   0.00000000000000E+00
      1.97593758121013E-18   0.00000000000000E+00   0.00000000000000E+00   0.00000000000000E+00   0.00000000000000E+00
      6.78561015093977E-18  -9.79736511670992E-34   6.78561015093977E-18  -1.20101216526463E-17   2.01525189920861E-03
      2.01525178892269E-03   0.00000000000000E+00   0.00000000000000E+00   5.61842210679346E-10   4.54898582736649E-34
      5.61842210679346E-10   4.86807963188734E-18
      4.53288751159228E-02
      0.00000000000000E+00   1.22372834820193E-10   0.00000000000000E+00   0.00000000000000E+00  -6.26075123506826E-10
      5.16717147576689E-34  -6.26075123506826E-10   5.16593951855838E-18   0.00000000000000E+00   0.00000000000000E+00
      0.00000000000000E+00   0.00000000000000E+00   0.00000000000000E+00   0.00000000000000E+00   0.00000000000000E+00
      1.97252792225325E-18   0.00000000000000E+00   0.00000000000000E+00   0.00000000000000E+00   0.00000000000000E+00
      9.65838017289367E-18  -9.61304818955179E-34   9.65838017289367E-18  -1.20099250911202E-17   2.26644375579614E-03
      2.26644363290084E-03   0.00000000000000E+00   0.00000000000000E+00   6.26075113848446E-10   4.44587671378490E-34
      6.26075113848446E-10   4.87145765030856E-18
      5.08550959608485E-02
      0.00000000000000E+00   1.35902419346119E-10   0.00000000000000E+00   0.00000000000000E+00  -6.95286775672246E-10
      5.05510746791867E-34  -6.95286775672246E-10   5.16575811762828E-18   0.00000000000000E+00   0.00000000000000E+00
      0.00000000000000E+00   0.00000000000000E+00   0.00000000000000E+00   0.00000000000000E+00   0.00000000000000E+00
      1.96877753566313E-18   0.00000000000000E+00   0.00000000000000E+00   0.00000000000000E+00   0.00000000000000E+00
      1.37921984956385E-17  -9.57608263250470E-34   1.37921984956385E-17  -1.20097095253361E-17   2.54275479804242E-03
      2.54275466156012E-03   0.00000000000000E+00   0.00000000000000E+00   6.95286761880047E-10   4.52097516458602E-34
      6.95286761880047E-10   4.87517387204470E-18
      5.69339388902666E-02
      0.00000000000000E+00   1.50448352769402E-10   0.00000000000000E+00   0.00000000000000E+00  -7.69695720087233E-10
      4.99624180272288E-34  -7.69695720087233E-10   5.16555859126611E-18   0.00000000000000E+00   0.00000000000000E+00
      0.00000000000000E+00   0.00000000000000E+00   0.00000000000000E+00   0.00000000000000E+00   0.00000000000000E+00
      1.96465239756448E-18   0.00000000000000E+00   0.00000000000000E+00   0.00000000000000E+00   0.00000000000000E+00
      3.03811723449235E-17  -9.35346300967765E-34   3.03811723449235E-17  -1.20094731893336E-17   2.84669694451333E-03
      2.84669679342344E-03   0.00000000000000E+00   0.00000000000000E+00   7.69695689706061E-10   4.35722120695477E-34
      7.69695689706061E-10   4.87926220050304E-18
      6.36206661126266E-02
      0.00000000000000E+00   1.66048144149748E-10   0.00000000000000E+00   0.00000000000000E+00  -8.49493365232787E-10
      5.58912470234316E-34  -8.49493365232787E-10   5.16533912993636E-18   0.00000000000000E+00   0.00000000000000E+00
      0.00000000000000E+00   0.00000000000000E+00   0.00000000000000E+00   0.00000000000000E+00   0.00000000000000E+00
      1.96011509159240E-18   0.00000000000000E+00   0.00000000000000E+00   0.00000000000000E+00   0.00000000000000E+00
      2.94584209752699E-17  -1.01269374834460E-33   2.94584209752699E-17  -1.20092141680099E-17   3.18103330563133E-03
      3.18103313887561E-03   0.00000000000000E+00   0.00000000000000E+00   8.49493335774366E-10   4.53781278110282E-34
      8.49493335774366E-10   4.88375994648118E-18
      7.09760660572226E-02
      0.00000000000000E+00   1.82732156860818E-10   0.00000000000000E+00   0.00000000000000E+00  -9.34834392597505E-10
      5.28260691434089E-34  -9.34834392597505E-10   5.16509774375511E-18   0.00000000000000E+00   0.00000000000000E+00
      0.00000000000000E+00   0.00000000000000E+00   0.00000000000000E+00   0.00000000000000E+00   0.00000000000000E+00
      1.95512447160041E-18   0.00000000000000E+00   0.00000000000000E+00   0.00000000000000E+00   0.00000000000000E+00
      4.25537608073337E-17  -9.55436107151264E-34   4.25537608073337E-17  -1.20089303877090E-17   3.54880330286113E-03
      3.54880311935089E-03   0.00000000000000E+00   0.00000000000000E+00   9.34834350043744E-10   4.27175415717175E-34
      9.34834350043744E-10   4.88870817235351E-18
      7.90670059962782E-02
      0.00000000000000E+00   2.00521326538115E-10   0.00000000000000E+00   0.00000000000000E+00  -1.02582550316865E-09
      5.42148804444163E-34  -1.02582550316865E-09   5.16483224457422E-18   0.00000000000000E+00   0.00000000000000E+00
      0.00000000000000E+00   0.00000000000000E+00   0.00000000000000E+00   0.00000000000000E+00   0.00000000000000E+00
      1.94963529102567E-18   0.00000000000000E+00   0.00000000000000E+00   0.00000000000000E+00   0.00000000000000E+00
      6.23313087263695E-17  -9.90897235781032E-34   6.23313087263695E-17  -1.20086196069717E-17   3.95335029981391E-03
      3.95335009843943E-03   0.00000000000000E+00   0.00000000000000E+00   1.02582544083734E-09   4.48748431336870E-34
      1.02582544083734E-09   4.89415207137184E-18
      8.79670399292394E-02
      0.00000000000000E+00   2.19424855031392E-10   0.00000000000000E+00   0.00000000000000E+00  -1.12251291293550E-09
      5.66550232625943E-34  -1.12251291293550E-09   5.16454022629251E-18   0.00000000000000E+00   0.00000000000000E+00
      0.00000000000000E+00   0.00000000000000E+00   0.00000000000000E+00   0.00000000000000E+00   0.00000000000000E+00
      1.94359779557697E-18   0.00000000000000E+00   0.00000000000000E+00   0.00000000000000E+00   0.00000000000000E+00
     -3.57502321468641E-21  -9.99924951871098E-34  -3.57502321468741E-21  -1.20082794075444E-17   4.39835199646197E-03
      4.39835177610435E-03   0.00000000000000E+00   0.00000000000000E+00   1.12251291293907E-09   4.33374719245155E-34
      1.12251291293907E-09   4.90014138567493E-18
      9.76977436959436E-02
      0.00000000000000E+00   2.39318502061538E-10   0.00000000000000E+00   0.00000000000000E+00  -1.22426104649981E-09
      5.50373630680742E-34  -1.22426104649981E-09   5.16422098967521E-18   0.00000000000000E+00   0.00000000000000E+00
      0.00000000000000E+00   0.00000000000000E+00   0.00000000000000E+00   0.00000000000000E+00   0.00000000000000E+00
      1.93699751908514E-18   0.00000000000000E+00   0.00000000000000E+00   0.00000000000000E+00   0.00000000000000E+00
      1.27941737549209E-16  -9.65654598067846E-34   1.27941737549209E-16  -1.20079094357299E-17   4.88488718479718E-03
      4.88488694446229E-03   0.00000000000000E+00   0.00000000000000E+00   1.22426091855807E-09   4.15280967387104E-34
      1.22426091855807E-09   4.90669092696959E-18
      1.07697743695944E-01
      0.00000000000000E+00   2.58946382691978E-10   0.00000000000000E+00   0.00000000000000E+00  -1.32464615197472E-09
      5.50663665558128E-34  -1.32464615197472E-09   5.16389295787757E-18   0.00000000000000E+00   0.00000000000000E+00
      0.00000000000000E+00   0.00000000000000E+00   0.00000000000000E+00   0.00000000000000E+00   0.00000000000000E+00
      1.93021535729361E-18   0.00000000000000E+00   0.00000000000000E+00   0.00000000000000E+00   0.00000000000000E+00
      1.69117898078685E-16  -9.66762017968888E-34   1.69117898078685E-16  -1.20075313680648E-17   5.38488718479718E-03
      5.38488692475209E-03   0.00000000000000E+00   0.00000000000000E+00   1.32464598285682E-09   4.16098352410760E-34
      1.32464598285682E-09   4.91342305289360E-18
      1.17697743695944E-01
      0.00000000000000E+00   2.77774446253613E-10   0.00000000000000E+00   0.00000000000000E+00  -1.42093730330732E-09
      4.99351583777006E-34  -1.42093730330732E-09   5.16356496597714E-18   0.00000000000000E+00   0.00000000000000E+00
      0.00000000000000E+00   0.00000000000000E+00   0.00000000000000E+00   0.00000000000000E+00   0.00000000000000E+00
      1.92343397717854E-18   0.00000000000000E+00   0.00000000000000E+00   0.00000000000000E+00   0.00000000000000E+00
      1.54042385518693E-16  -8.98686711018882E-34   1.54042385518693E-16  -1.20071554608060E-17   5.88488718479718E-03
      5.88488690584523E-03   0.00000000000000E+00   0.00000000000000E+00   1.42093714926494E-09   3.99335127241876E-34
      1.42093714926494E-09   4.92015651765033E-18
      1.27697743695944E-01
      0.00000000000000E+00   2.95830215552692E-10   0.00000000000000E+00   0.00000000000000E+00  -1.51327598556263E-09
      5.18600194326600E-34  -1.51327598556263E-09   5.16323701366825E-18   0.00000000000000E+00   0.00000000000000E+00
      0.00000000000000E+00   0.00000000000000E+00   0.00000000000000E+00   0.00000000000000E+00   0.00000000000000E+00
      1.91665337320224E-18   0.00000000000000E+00   0.00000000000000E+00   0.00000000000000E+00   0.00000000000000E+00
      9.00433617438183E-17  -9.26959859173248E-34   9.00433617438183E-17  -1.20067817021127E-17   6.38488718479718E-03
      6.38488688771404E-03   0.00000000000000E+00   0.00000000000000E+00   1.51327589551927E-09   4.08359664846648E-34
      1.51327589551927E-09   4.92689131524224E-18
      1.37697743695944E-01
      0.00000000000000E+00   3.13140907246340E-10   0.00000000000000E+00   0.00000000000000E+00  -1.60180184568021E-09
      5.32115890761842E-34  -1.60180184568021E-09   5.16290910063675E-18   0.00000000000000E+00   0.00000000000000E+00
      0.00000000000000E+00   0.00000000000000E+00   0.00000000000000E+00   0.00000000000000E+00   0.00000000000000E+00
      1.90987353975030E-18   0.00000000000000E+00   0.00000000000000E+00   0.00000000000000E+00   0.00000000000000E+00
      1.50292416592143E-16  -9.22232674108893E-34   1.50292416592143E-16  -1.20064100800267E-17   6.88488718479718E-03
      6.88488687033121E-03   0.00000000000000E+00   0.00000000000000E+00   1.60180169538779E-09   3.90116783347050E-34
      1.60180169538779E-09   4.93362743963966E-18
      1.47697743695944E-01
      0.00000000000000E+00   3.29733127348297E-10   0.00000000000000E+00   0.00000000000000E+00  -1.68665189203178E-09
      5.55986028906567E-34  -1.68665189203178E-09   5.16258122656913E-18   0.00000000000000E+00   0.00000000000000E+00
      0.00000000000000E+00   0.00000000000000E+00   0.00000000000000E+00   0.00000000000000E+00   0.00000000000000E+00
      1.90309447128074E-18   0.00000000000000E+00   0.00000000000000E+00   0.00000000000000E+00   0.00000000000000E+00
      1.40647580721385E-16  -9.46645135224791E-34   1.40647580721385E-16  -1.20060405827195E-17   7.38488718479718E-03
      7.38488685366987E-03   0.00000000000000E+00   0.00000000000000E+00   1.68665175138420E-09   3.90659106318224E-34
      1.68665175138420E-09   4.94036488486955E-18
      1.57697743695944E-01
      0.00000000000000E+00   3.45633105391619E-10   0.00000000000000E+00   0.00000000000000E+00  -1.76796019337268E-09
      5.37714021353839E-34  -1.76796019337268E-09   5.16225339115506E-18   0.00000000000000E+00   0.00000000000000E+00
      0.00000000000000E+00   0.00000000000000E+00   0.00000000000000E+00   0.00000000000000E+00   0.00000000000000E+00
      1.89631616233243E-18   0.00000000000000E+00   0.00000000000000E+00   0.00000000000000E+00   0.00000000000000E+00
      1.33200091428975E-16  -9.17044617816390E-34   1.33200091428975E-16  -1.20056731985087E-17   7.88488718479718E-03
      7.88488683770391E-03   0.00000000000000E+00   0.00000000000000E+00   1.76796006017259E-09   3.79330596462551E-34
      1.76796006017259E-09   4.94710364502124E-18
      1.67697743695944E-01
      0.00000000000000E+00   3.60866311328567E-10   0.00000000000000E+00   0.00000000000000E+00  -1.84585781228777E-09
      5.54871501615564E-34  -1.84585781228777E-09   5.16192559407959E-18   0.00000000000000E+00   0.00000000000000E+00
      0.00000000000000E+00   0.00000000000000E+00   0.00000000000000E+00   0.00000000000000E+00   0.00000000000000E+00
      1.88953860741635E-18   0.00000000000000E+00   0.00000000000000E+00   0.00000000000000E+00   0.00000000000000E+00
      1.37334014534330E-16  -9.42772910067041E-34   1.37334014534330E-16  -1.20053079156734E-17   8.38488718479718E-03
      8.38488682240763E-03   0.00000000000000E+00   0.00000000000000E+00   1.84585767495376E-09   3.87901408451477E-34
      1.84585767495376E-09   4.95384371417744E-18
      1.77697743695944E-01
      0.00000000000000E+00   3.75457647494374E-10   0.00000000000000E+00   0.00000000000000E+00  -1.92047246915175E-09
      5.30069918551906E-34  -1.92047246915175E-09   5.16159783502969E-18   0.00000000000000E+00   0.00000000000000E+00
      0.00000000000000E+00   0.00000000000000E+00   0.00000000000000E+00   0.00000000000000E+00   0.00000000000000E+00
      1.88276180110767E-18   0.00000000000000E+00   0.00000000000000E+00   0.00000000000000E+00   0.00000000000000E+00
      1.36128638353038E-16  -8.89195876617469E-34   1.36128638353038E-16  -1.20049447226015E-17   8.88488718479718E-03
      8.88488680775602E-03   0.00000000000000E+00   0.00000000000000E+00   1.92047233302312E-09   3.59125958065563E-34
      1.92047233302312E-09   4.96058508646413E-18
      1.87697743695944E-01
      0.00000000000000E+00   3.89431328629890E-10   0.00000000000000E+00   0.00000000000000E+00  -1.99192860216623E-09
      5.30965259485774E-34  -1.99192860216623E-09   5.16127011369102E-18   0.00000000000000E+00   0.00000000000000E+00
      0.00000000000000E+00   0.00000000000000E+00   0.00000000000000E+00   0.00000000000000E+00   0.00000000000000E+00
      1.87598573800597E-18   0.00000000000000E+00   0.00000000000000E+00   0.00000000000000E+00   0.00000000000000E+00
      1.34686996384618E-16  -8.76750775268602E-34   1.34686996384618E-16  -1.20045836077386E-17   9.38488718479718E-03
      9.38488679372475E-03   0.00000000000000E+00   0.00000000000000E+00   1.99192846747923E-09   3.45785515782829E-34
      1.99192846747923E-09   4.96732775604158E-18
      1.97697743695944E-01
      0.00000000000000E+00   4.02810941456547E-10   0.00000000000000E+00   0.00000000000000E+00  -2.06034721205390E-09