DF-ISE text

Info {
  version   = 1.0
  type      = xyplot
  datasets  = [
    "time"
    "source OuterVoltage" "source InnerVoltage" "source QuasiFermiPotential" "source DisplacementCurrent" "source eCurrent"
    "source hCurrent" "source TotalCurrent" "source Charge" "gate OuterVoltage" "gate InnerVoltage"
    "gate QuasiFermiPotential" "gate DisplacementCurrent" "gate eCurrent" "gate hCurrent" "gate TotalCurrent"
    "gate Charge" "substrate OuterVoltage" "substrate InnerVoltage" "substrate QuasiFermiPotential" "substrate DisplacementCurrent"
    "substrate eCurrent" "substrate hCurrent" "substrate TotalCurrent" "substrate Charge" "drain OuterVoltage"
    "drain InnerVoltage" "drain QuasiFermiPotential" "drain DisplacementCurrent" "drain eCurrent" "drain hCurrent"
    "drain TotalCurrent" "drain Charge" ]
  functions = [
    Time
    OuterVoltage InnerVoltage QuasiFermiPotential DisplacementCurrent eCurrent
    hCurrent TotalCurrent Charge OuterVoltage InnerVoltage
    QuasiFermiPotential DisplacementCurrent eCurrent hCurrent TotalCurrent
    Charge OuterVoltage InnerVoltage QuasiFermiPotential DisplacementCurrent
    eCurrent hCurrent TotalCurrent Charge OuterVoltage
    InnerVoltage QuasiFermiPotential DisplacementCurrent eCurrent hCurrent
    TotalCurrent Charge ]
}

Data {
      0.00000000000000E+00
      0.00000000000000E+00   0.00000000000000E+00   0.00000000000000E+00   0.00000000000000E+00   4.59981357690730E-21
      5.70491801008015E-34   4.59981357690787E-21   5.68225082604145E-18   0.00000000000000E+00   0.00000000000000E+00
      0.00000000000000E+00   0.00000000000000E+00   0.00000000000000E+00   0.00000000000000E+00   0.00000000000000E+00
      4.58688792546826E-18   0.00000000000000E+00   0.00000000000000E+00   0.00000000000000E+00   0.00000000000000E+00
     -6.39786941033943E-21  -1.15062308710464E-33  -6.39786941034058E-21  -1.51114021436845E-17   0.00000000000000E+00
      0.00000000000000E+00   0.00000000000000E+00   0.00000000000000E+00   1.79805583343213E-21   5.80131286096627E-34
      1.79805583343271E-21   4.84226339217482E-18
      0.00000000000000E+00
      0.00000000000000E+00   0.00000000000000E+00   0.00000000000000E+00   0.00000000000000E+00   2.63949861347557E-19
      5.49147598964305E-34   2.63949861347558E-19   5.68004817312196E-18   0.00000000000000E+00   0.00000000000000E+00
      0.00000000000000E+00   0.00000000000000E+00   0.00000000000000E+00   0.00000000000000E+00   0.00000000000000E+00
      4.57952923859323E-18   0.00000000000000E+00   0.00000000000000E+00   0.00000000000000E+00   0.00000000000000E+00
     -1.85868405693698E-19  -1.11222038927644E-33  -1.85868405693699E-19  -1.51000444982457E-17   0.00000000000000E+00
      0.00000000000000E+00   0.00000000000000E+00   0.00000000000000E+00  -7.80814556538595E-20   5.63072790312137E-34
     -7.80814556538589E-20   4.84046708653057E-18
      1.00000000000000E-03
      0.00000000000000E+00   1.57204622844461E-11   0.00000000000000E+00   0.00000000000000E+00  -8.06592757405192E-11
      5.59378417894696E-34  -8.06592757405192E-11   5.67975090515267E-18   0.00000000000000E+00   0.00000000000000E+00
      0.00000000000000E+00   0.00000000000000E+00   0.00000000000000E+00   0.00000000000000E+00   0.00000000000000E+00
      4.56833274808185E-18   0.00000000000000E+00   0.00000000000000E+00   0.00000000000000E+00   0.00000000000000E+00
     -4.42296933234299E-22  -1.12758246147070E-33  -4.42296933235427E-22  -1.50996013318048E-17   8.60000000000000E-04
      8.59999984214767E-04   0.00000000000000E+00   0.00000000000000E+00   8.06592757409616E-11   5.68204043576002E-34
      8.06592757409616E-11   4.85151767857030E-18
      2.08666666666667E-03
      0.00000000000000E+00   3.18334809554655E-11   0.00000000000000E+00   0.00000000000000E+00  -1.63325021035773E-10
      5.83860758899586E-34  -1.63325021035773E-10   5.67942792435291E-18   0.00000000000000E+00   0.00000000000000E+00
      0.00000000000000E+00   0.00000000000000E+00   0.00000000000000E+00   0.00000000000000E+00   0.00000000000000E+00
      4.55616844572154E-18   0.00000000000000E+00   0.00000000000000E+00   0.00000000000000E+00   0.00000000000000E+00
      1.01336671395871E-15  -1.12367906612546E-33   1.01336671395871E-15  -1.50991264829582E-17   1.79453333333333E-03
      1.79453330136891E-03   0.00000000000000E+00   0.00000000000000E+00   1.63324007669059E-10   5.39818307225877E-34
      1.63324007669059E-10   4.86353011288378E-18
      3.28200000000000E-03
      0.00000000000000E+00   4.84093028613240E-11   0.00000000000000E+00   0.00000000000000E+00  -2.48354219113375E-10
      5.31472274658849E-34  -2.48354219113375E-10   5.67907270536414E-18   0.00000000000000E+00   0.00000000000000E+00
      0.00000000000000E+00   0.00000000000000E+00   0.00000000000000E+00   0.00000000000000E+00   0.00000000000000E+00
      4.54279073523715E-18   0.00000000000000E+00   0.00000000000000E+00   0.00000000000000E+00   0.00000000000000E+00
     -2.87626171817686E-19  -1.04538373087806E-33  -2.87626171817688E-19  -1.50986121452681E-17   2.82252000000000E-03
      2.82251995139216E-03   0.00000000000000E+00   0.00000000000000E+00   2.48354219401001E-10   5.13911456219216E-34
      2.48354219401001E-10   4.87674870466685E-18
      4.58889777777778E-03
      0.00000000000000E+00   6.52120283884285E-11   0.00000000000000E+00   0.00000000000000E+00  -3.34535193626729E-10
      5.67324535388519E-34  -3.34535193626729E-10   5.67868440322946E-18   0.00000000000000E+00   0.00000000000000E+00
      0.00000000000000E+00   0.00000000000000E+00   0.00000000000000E+00   0.00000000000000E+00   0.00000000000000E+00
      4.52816800215701E-18   0.00000000000000E+00   0.00000000000000E+00   0.00000000000000E+00   0.00000000000000E+00
     -2.04818541760051E-19  -1.08239270012270E-33  -2.04818541760053E-19  -1.50980592672149E-17   3.94645208888889E-03
      3.94645202341001E-03   0.00000000000000E+00   0.00000000000000E+00   3.34535193831548E-10   5.15068164734183E-34
      3.34535193831548E-10   4.89120686182839E-18
      6.01777268148148E-03
      0.00000000000000E+00   8.20920232922707E-11   0.00000000000000E+00   0.00000000000000E+00  -4.21098708095713E-10
      5.70346574049695E-34  -4.21098708095713E-10   5.67825994234834E-18   0.00000000000000E+00   0.00000000000000E+00
      0.00000000000000E+00   0.00000000000000E+00   0.00000000000000E+00   0.00000000000000E+00   0.00000000000000E+00
      4.51218466443481E-18   0.00000000000000E+00   0.00000000000000E+00   0.00000000000000E+00   0.00000000000000E+00
      1.93048919742545E-20  -1.05929455588978E-33   1.93048919742535E-20  -1.50974659442374E-17   5.17528450607408E-03
      5.17528442364687E-03   0.00000000000000E+00   0.00000000000000E+00   4.21098708076408E-10   4.88947981840079E-34
      4.21098708076408E-10   4.90702133745431E-18
      7.58000924286420E-03
      0.00000000000000E+00   9.88842968882810E-11   0.00000000000000E+00   0.00000000000000E+00  -5.07197459234306E-10
      5.63350494995246E-34  -5.07197459234306E-10   5.67779596188836E-18   0.00000000000000E+00   0.00000000000000E+00
      0.00000000000000E+00   0.00000000000000E+00   0.00000000000000E+00   0.00000000000000E+00   0.00000000000000E+00
      4.49471445225387E-18   0.00000000000000E+00   0.00000000000000E+00   0.00000000000000E+00   0.00000000000000E+00
      5.21136377350311E-20  -1.02450944532418E-33   5.21136377350300E-20  -1.50968303802256E-17   6.51880794886321E-03
      6.51880784957606E-03   0.00000000000000E+00   0.00000000000000E+00   5.07197459182192E-10   4.61158950328938E-34
      5.07197459182192E-10   4.92431996608337E-18
      9.28805454997597E-03
      0.00000000000000E+00   1.15410208766641E-10   0.00000000000000E+00   0.00000000000000E+00  -5.91915130055706E-10
      5.40449418683715E-34  -5.91915130055706E-10   5.67728878938411E-18   0.00000000000000E+00   0.00000000000000E+00
      0.00000000000000E+00   0.00000000000000E+00   0.00000000000000E+00   0.00000000000000E+00   0.00000000000000E+00
      4.47561942428258E-18   0.00000000000000E+00   0.00000000000000E+00   0.00000000000000E+00   0.00000000000000E+00
     -1.62514798859605E-20  -1.00850534582037E-33  -1.62514798859616E-20  -1.50961509412997E-17   7.98772691297934E-03
      7.98772679709992E-03   0.00000000000000E+00   0.00000000000000E+00   5.91915130071957E-10   4.68055927136656E-34
      5.91915130071957E-10   4.94324272763296E-18
      1.11555174190848E-02
      0.00000000000000E+00   1.31481144179072E-10   0.00000000000000E+00   0.00000000000000E+00  -6.74285257510005E-10
      5.67359473939408E-34  -6.74285257510005E-10   5.67673441186913E-18   0.00000000000000E+00   0.00000000000000E+00
      0.00000000000000E+00   0.00000000000000E+00   0.00000000000000E+00   0.00000000000000E+00   0.00000000000000E+00
      4.45474889296681E-18   0.00000000000000E+00   0.00000000000000E+00   0.00000000000000E+00   0.00000000000000E+00
      2.03634530320640E-19  -9.85212014276720E-34   2.03634530320639E-19  -1.50954262193342E-17   9.59374498041296E-03
      9.59374484839830E-03   0.00000000000000E+00   0.00000000000000E+00   6.74285257306371E-10   4.17852540337311E-34
      6.74285257306371E-10   4.96394291449827E-18
      1.31972768226439E-02
      0.00000000000000E+00   1.46903681303614E-10   0.00000000000000E+00   0.00000000000000E+00  -7.53318158403280E-10
      5.73021996389690E-34  -7.53318158403280E-10   5.67612844431905E-18   0.00000000000000E+00   0.00000000000000E+00
      0.00000000000000E+00   0.00000000000000E+00   0.00000000000000E+00   0.00000000000000E+00   0.00000000000000E+00
      4.43193825104217E-18   0.00000000000000E+00   0.00000000000000E+00   0.00000000000000E+00   0.00000000000000E+00
     -2.50800856362263E-19  -9.45616589210682E-34  -2.50800856362264E-19  -1.50946551075511E-17   1.13496580674737E-02
      1.13496579199750E-02   0.00000000000000E+00   0.00000000000000E+00   7.53318158654080E-10   3.72594592820993E-34
      7.53318158654080E-10   4.98658841218988E-18
      1.54296004372017E-02
      0.00000000000000E+00   1.61486568250056E-10   0.00000000000000E+00   0.00000000000000E+00  -8.28036670278707E-10
      5.49600926086286E-34  -8.28036670278707E-10   5.67546609513630E-18   0.00000000000000E+00   0.00000000000000E+00
      0.00000000000000E+00   0.00000000000000E+00   0.00000000000000E+00   0.00000000000000E+00   0.00000000000000E+00
      4.40700768918677E-18   0.00000000000000E+00   0.00000000000000E+00   0.00000000000000E+00   0.00000000000000E+00
     -9.69873952183498E-20  -9.24012135415905E-34  -9.69873952183508E-20  -1.50938368883820E-17   1.32694563759935E-02
      1.32694562138540E-02   0.00000000000000E+00   0.00000000000000E+00   8.28036670375694E-10   3.74411209329618E-34
      8.28036670375694E-10   5.01136310405893E-18
      1.78702742557850E-02
      0.00000000000000E+00   1.75049320525986E-10   0.00000000000000E+00   0.00000000000000E+00  -8.97520822405429E-10
      5.55389619524890E-34  -8.97520822405429E-10   5.67474212838884E-18   0.00000000000000E+00   0.00000000000000E+00
      0.00000000000000E+00   0.00000000000000E+00   0.00000000000000E+00   0.00000000000000E+00   0.00000000000000E+00
      4.37976079428919E-18   0.00000000000000E+00   0.00000000000000E+00   0.00000000000000E+00   0.00000000000000E+00
     -5.96071888300365E-19  -9.04144883284402E-34  -5.96071888300366E-19  -1.50929713347068E-17   1.53684358599751E-02
      1.53684356842190E-02   0.00000000000000E+00   0.00000000000000E+00   8.97520823001501E-10   3.48755263759513E-34
      8.97520823001501E-10   5.03846841202881E-18
      2.05387442974361E-02
      0.00000000000000E+00   1.87432262461844E-10   0.00000000000000E+00   0.00000000000000E+00  -9.60959277132748E-10
      5.78370347591741E-34  -9.60959277132748E-10   5.67395082249000E-18   0.00000000000000E+00   0.00000000000000E+00
      0.00000000000000E+00   0.00000000000000E+00   0.00000000000000E+00   0.00000000000000E+00   0.00000000000000E+00
      4.34998301733555E-18   0.00000000000000E+00   0.00000000000000E+00   0.00000000000000E+00   0.00000000000000E+00
     -1.97887677694553E-19  -8.96130061746886E-34  -1.97887677694554E-19  -1.50920588259678E-17   1.76633200957950E-02
      1.76633199076070E-02   0.00000000000000E+00   0.00000000000000E+00   9.60959277330636E-10   3.17759714155144E-34
      9.60959277330636E-10   5.06812498614222E-18
      2.34562715429746E-02
      0.00000000000000E+00   1.98507974259778E-10   0.00000000000000E+00   0.00000000000000E+00  -1.01770812165049E-09
      5.49224438329310E-34  -1.01770812165049E-09   5.67308592497684E-18   0.00000000000000E+00   0.00000000000000E+00
      0.00000000000000E+00   0.00000000000000E+00   0.00000000000000E+00   0.00000000000000E+00   0.00000000000000E+00
      4.31743999745609E-18   0.00000000000000E+00   0.00000000000000E+00   0.00000000000000E+00   0.00000000000000E+00
      6.58418604183620E-20  -8.34731154067605E-34   6.58418604183611E-20  -1.50911004795571E-17   2.01723935269581E-02
      2.01723933276506E-02   0.00000000000000E+00   0.00000000000000E+00   1.01770812158465E-09   2.85506715738295E-34
      1.01770812158465E-09   5.10057455712416E-18
      2.66461013314300E-02
      0.00000000000000E+00   2.08193394734057E-10   0.00000000000000E+00   0.00000000000000E+00  -1.06735290576110E-09
      5.75114721930423E-34  -1.06735290576110E-09   5.67214060297330E-18   0.00000000000000E+00   0.00000000000000E+00
      0.00000000000000E+00   0.00000000000000E+00   0.00000000000000E+00   0.00000000000000E+00   0.00000000000000E+00
      4.28187572712470E-18   0.00000000000000E+00   0.00000000000000E+00   0.00000000000000E+00   0.00000000000000E+00
      2.79363070907766E-19  -8.38286440723141E-34   2.79363070907765E-19  -1.50900982961783E-17   2.29156471450298E-02
      2.29156469359987E-02   0.00000000000000E+00   0.00000000000000E+00   1.06735290548173E-09   2.63171718792717E-34
      1.06735290548173E-09   5.13608196608031E-18
      3.01336485668079E-02
      0.00000000000000E+00   2.16461452848052E-10   0.00000000000000E+00   0.00000000000000E+00  -1.10976801147346E-09
      5.61184384202473E-34  -1.10976801147346E-09   5.67110738897946E-18   0.00000000000000E+00   0.00000000000000E+00
      0.00000000000000E+00   0.00000000000000E+00   0.00000000000000E+00   0.00000000000000E+00   0.00000000000000E+00
      4.24301054535057E-18   0.00000000000000E+00   0.00000000000000E+00   0.00000000000000E+00   0.00000000000000E+00
     -4.01672739811034E-20  -8.05364045921366E-34  -4.01672739811042E-20  -1.50890553231410E-17   2.59149377674548E-02
      2.59149375501232E-02   0.00000000000000E+00   0.00000000000000E+00   1.10976801151363E-09   2.44179661718892E-34
      1.10976801151363E-09   5.17493738881101E-18
      3.39467002108211E-02
      0.00000000000000E+00   2.23351464538485E-10   0.00000000000000E+00   0.00000000000000E+00  -1.14516960184677E-09
      5.78697602542542E-34  -1.14516960184677E-09   5.66997812147358E-18   0.00000000000000E+00   0.00000000000000E+00
      0.00000000000000E+00   0.00000000000000E+00   0.00000000000000E+00   0.00000000000000E+00   0.00000000000000E+00
      4.20053893738613E-18   0.00000000000000E+00   0.00000000000000E+00   0.00000000000000E+00   0.00000000000000E+00
     -4.66263900138765E-19  -7.89095281723725E-34  -4.66263900138766E-19  -1.50879758294275E-17   2.91941621813061E-02
      2.91941619570581E-02   0.00000000000000E+00   0.00000000000000E+00   1.14516960231303E-09   2.10397679181183E-34
      1.14516960231303E-09   5.21745877056780E-18
      3.81156366749421E-02
      0.00000000000000E+00   2.28975838978552E-10   0.00000000000000E+00   0.00000000000000E+00  -1.17414890954053E-09
      5.55082332193331E-34  -1.17414890954053E-09   5.66874387991619E-18   0.00000000000000E+00   0.00000000000000E+00
      0.00000000000000E+00   0.00000000000000E+00   0.00000000000000E+00   0.00000000000000E+00   0.00000000000000E+00
      4.15412712421920E-18   0.00000000000000E+00   0.00000000000000E+00   0.00000000000000E+00   0.00000000000000E+00
     -3.44108058194307E-19  -7.35544525977322E-34  -3.44108058194308E-19  -1.50868654950399E-17   3.27794475404502E-02
      3.27794473105574E-02   0.00000000000000E+00   0.00000000000000E+00   1.17414890988464E-09   1.80462193783991E-34
      1.17414890988464E-09   5.26399449090455E-18
      4.26736738757145E-02
      0.00000000000000E+00   2.33520109725259E-10   0.00000000000000E+00   0.00000000000000E+00  -1.19767130886392E-09
      5.73231233317287E-34  -1.19767130886392E-09   5.66739491364987E-18   0.00000000000000E+00   0.00000000000000E+00
      0.00000000000000E+00   0.00000000000000E+00   0.00000000000000E+00   0.00000000000000E+00   0.00000000000000E+00
      4.10341041881407E-18   0.00000000000000E+00   0.00000000000000E+00   0.00000000000000E+00   0.00000000000000E+00
     -9.28189208325918E-19  -7.40113937535113E-34  -9.28189208325918E-19  -1.50857316097154E-17   3.66993595331145E-02
      3.66993592986629E-02   0.00000000000000E+00   0.00000000000000E+00   1.19767130979210E-09   1.66882704217827E-34
      1.19767130979210E-09   5.31492627725149E-18
      4.76571278818923E-02
      0.00000000000000E+00   2.37232874126782E-10   0.00000000000000E+00   0.00000000000000E+00  -1.21702234535984E-09
      5.65113861072399E-34  -1.21702234535984E-09   5.66592056425520E-18   0.00000000000000E+00   0.00000000000000E+00
      0.00000000000000E+00   0.00000000000000E+00   0.00000000000000E+00   0.00000000000000E+00   0.00000000000000E+00
      4.04799032709218E-18   0.00000000000000E+00   0.00000000000000E+00   0.00000000000000E+00   0.00000000000000E+00
     -1.80708086850118E-18  -7.04169336933331E-34  -1.80708086850118E-18  -1.50845832800043E-17   4.09851299784274E-02
      4.09851297402549E-02   0.00000000000000E+00   0.00000000000000E+00   1.21702234716692E-09   1.39055475860932E-34
      1.21702234716692E-09   5.37067238865690E-18
      5.31057042619801E-02
      0.00000000000000E+00   2.40403340079487E-10   0.00000000000000E+00   0.00000000000000E+00  -1.23369192730206E-09
      5.55152084281528E-34  -1.23369192730206E-09   5.66430918093114E-18   0.00000000000000E+00   0.00000000000000E+00
      0.00000000000000E+00   0.00000000000000E+00   0.00000000000000E+00   0.00000000000000E+00   0.00000000000000E+00
      3.98743137483304E-18   0.00000000000000E+00   0.00000000000000E+00   0.00000000000000E+00   0.00000000000000E+00
     -1.91732950519396E-17  -6.78701798584323E-34  -1.91732950519396E-17  -1.50834316487552E-17   4.56709056653029E-02
      4.56709054239579E-02   0.00000000000000E+00   0.00000000000000E+00   1.23369194647536E-09   1.23549714302795E-34
      1.23369194647536E-09   5.43169109299099E-18
      5.90628144375427E-02
      0.00000000000000E+00   2.43329691505844E-10   0.00000000000000E+00   0.00000000000000E+00  -1.24921140177021E-09
      5.44032613962975E-34  -1.24921140177021E-09   5.66254802843840E-18   0.00000000000000E+00   0.00000000000000E+00
      0.00000000000000E+00   0.00000000000000E+00   0.00000000000000E+00   0.00000000000000E+00   0.00000000000000E+00
      3.92125763319624E-18   0.00000000000000E+00   0.00000000000000E+00   0.00000000000000E+00   0.00000000000000E+00
     -2.45956949043902E-17  -6.50286311866394E-34  -2.45956949043902E-17  -1.50822901204259E-17   5.07940204162867E-02
      5.07940201720205E-02   0.00000000000000E+00   0.00000000000000E+00   1.24921142636591E-09   1.06253697903419E-34
      1.24921142636591E-09   5.49848445879130E-18
      6.55759215628244E-02
      0.00000000000000E+00   2.46277667975239E-10   0.00000000000000E+00   0.00000000000000E+00  -1.26494215512551E-09
      5.81873052612292E-34  -1.26494215512551E-09   5.66062318744658E-18   0.00000000000000E+00   0.00000000000000E+00
      0.00000000000000E+00   0.00000000000000E+00   0.00000000000000E+00   0.00000000000000E+00   0.00000000000000E+00
      3.84894893324166E-18   0.00000000000000E+00   0.00000000000000E+00   0.00000000000000E+00   0.00000000000000E+00
      2.24717710794666E-20  -6.63060127939249E-34   2.24717710794659E-20  -1.50811746112010E-17   5.63952925440290E-02
      5.63952922968280E-02   0.00000000000000E+00   0.00000000000000E+00   1.26494215510303E-09   8.11870753269570E-35
      1.26494215510303E-09   5.57160249051281E-18
      7.26534979722973E-02
      0.00000000000000E+00   2.49417972914896E-10   0.00000000000000E+00   0.00000000000000E+00  -1.28174882045000E-09
      5.50802654068397E-34  -1.28174882045000E-09   5.65853227145749E-18   0.00000000000000E+00   0.00000000000000E+00
      0.00000000000000E+00   0.00000000000000E+00   0.00000000000000E+00   0.00000000000000E+00   0.00000000000000E+00
      3.77041838322453E-18   0.00000000000000E+00   0.00000000000000E+00   0.00000000000000E+00   0.00000000000000E+00
     -2.34532955580837E-19  -6.18293953919917E-34  -2.34532955580837E-19  -1.50801098934658E-17   6.24820082561757E-02
      6.24820080058545E-02   0.00000000000000E+00   0.00000000000000E+00   1.28174882068454E-09   6.74912998515203E-35
      1.28174882068454E-09   5.65115923878385E-18
      8.03444643372578E-02
      0.00000000000000E+00   2.52854374106212E-10   0.00000000000000E+00   0.00000000000000E+00  -1.30015703915456E-09
      5.54389934365802E-34  -1.30015703915456E-09   5.65626094939105E-18   0.00000000000000E+00   0.00000000000000E+00
      0.00000000000000E+00   0.00000000000000E+00   0.00000000000000E+00   0.00000000000000E+00   0.00000000000000E+00
      3.68513037112121E-18   0.00000000000000E+00   0.00000000000000E+00   0.00000000000000E+00   0.00000000000000E+00
      2.11043868569814E-19  -6.08909771098834E-34   2.11043868569813E-19  -1.50791158238048E-17   6.90962393300417E-02
      6.90962390763126E-02   0.00000000000000E+00   0.00000000000000E+00   1.30015703894352E-09   5.45198367330323E-35
      1.30015703894352E-09   5.73772450329264E-18
      8.87019811205149E-02
      0.00000000000000E+00   2.56644712170079E-10   0.00000000000000E+00   0.00000000000000E+00  -1.32047216837836E-09
      5.65326484791794E-34  -1.32047216837836E-09   5.65379365289937E-18   0.00000000000000E+00   0.00000000000000E+00
      0.00000000000000E+00   0.00000000000000E+00   0.00000000000000E+00   0.00000000000000E+00   0.00000000000000E+00
      3.59250295169662E-18   0.00000000000000E+00   0.00000000000000E+00   0.00000000000000E+00   0.00000000000000E+00
      1.33912641402321E-19  -6.07687716735363E-34   1.33912641402320E-19  -1.50782148901506E-17   7.62837037636428E-02
      7.62837035061617E-02   0.00000000000000E+00   0.00000000000000E+00   1.32047216824445E-09   4.23612319435696E-35
      1.32047216824445E-09   5.83191828555458E-18
      9.77838160249876E-02
      0.00000000000000E+00   2.60819859716599E-10   0.00000000000000E+00   0.00000000000000E+00  -1.34286180253057E-09
      5.31273677947684E-34  -1.34286180253057E-09   5.65111347227821E-18   0.00000000000000E+00   0.00000000000000E+00
      0.00000000000000E+00   0.00000000000000E+00   0.00000000000000E+00   0.00000000000000E+00   0.00000000000000E+00
      3.49190386878896E-18   0.00000000000000E+00   0.00000000000000E+00   0.00000000000000E+00   0.00000000000000E+00
     -1.01900922561337E-19  -5.62735765907574E-34  -1.01900922561338E-19  -1.50774324254250E-17   8.40940817814893E-02
      8.40940815198785E-02   0.00000000000000E+00   0.00000000000000E+00   1.34286180263247E-09   3.14620879598890E-35
      1.34286180263247E-09   5.93441508435783E-18
      1.07652743287848E-01
      0.00000000000000E+00   2.65390971488768E-10   0.00000000000000E+00   0.00000000000000E+00  -1.36739360242968E-09
      5.36145731247533E-34  -1.36739360242968E-09   5.64820204021825E-18   0.00000000000000E+00   0.00000000000000E+00
      0.00000000000000E+00   0.00000000000000E+00   0.00000000000000E+00   0.00000000000000E+00   0.00000000000000E+00
      3.38264618828345E-18   0.00000000000000E+00   0.00000000000000E+00   0.00000000000000E+00   0.00000000000000E+00
     -2.32269256311440E-19  -5.60166793357571E-34  -2.32269256311441E-19  -1.50767967543784E-17   9.25813592275492E-02
      9.25813589614176E-02   0.00000000000000E+00   0.00000000000000E+00   1.36739360266195E-09   2.40210621100374E-35
      1.36739360266195E-09   6.04594852587677E-18
      1.17652743287848E-01
      0.00000000000000E+00   2.70044681229732E-10   0.00000000000000E+00   0.00000000000000E+00  -1.39239748267745E-09
      5.77318306798533E-34  -1.39239748267745E-09   5.64525294492614E-18   0.00000000000000E+00   0.00000000000000E+00
      0.00000000000000E+00   0.00000000000000E+00   0.00000000000000E+00   0.00000000000000E+00   0.00000000000000E+00
      3.27199504327079E-18   0.00000000000000E+00   0.00000000000000E+00   0.00000000000000E+00   0.00000000000000E+00
      3.33526528171006E-20  -5.93811907895668E-34   3.33526528171000E-20  -1.50763628225367E-17   1.01181359227549E-01
      1.01181358956821E-01   0.00000000000000E+00   0.00000000000000E+00   1.39239748264410E-09   1.64936010971353E-35
      1.39239748264410E-09   6.15911483433976E-18
      1.27652743287848E-01
      0.00000000000000E+00   2.74726458722387E-10   0.00000000000000E+00   0.00000000000000E+00  -1.41758383693812E-09
      5.63962170024535E-34  -1.41758383693812E-09   5.64230477476887E-18   0.00000000000000E+00   0.00000000000000E+00
      0.00000000000000E+00   0.00000000000000E+00   0.00000000000000E+00   0.00000000000000E+00   0.00000000000000E+00
      3.16139631049680E-18   0.00000000000000E+00   0.00000000000000E+00   0.00000000000000E+00   0.00000000000000E+00
      1.79581618600538E-19  -5.77202574739019E-34   1.79581618600537E-19  -1.50761237023692E-17   1.09781359227549E-01
      1.09781358952206E-01   0.00000000000000E+00   0.00000000000000E+00   1.41758383675854E-09   1.32404047144838E-35
      1.41758383675854E-09   6.27242261710357E-18
      1.37652743287848E-01
      0.00000000000000E+00   2.79446021938579E-10   0.00000000000000E+00   0.00000000000000E+00  -1.44300276705874E-09
      5.32526772655153E-34  -1.44300276705874E-09   5.63935745552445E-18   0.00000000000000E+00   0.00000000000000E+00
      0.00000000000000E+00   0.00000000000000E+00   0.00000000000000E+00   0.00000000000000E+00   0.00000000000000E+00
      3.05084510580704E-18   0.00000000000000E+00   0.00000000000000E+00   0.00000000000000E+00   0.00000000000000E+00
      6.12596907344230E-20  -5.42363809374814E-34   6.12596907344224E-20  -1.50760642374260E-17   1.18381359227549E-01
      1.18381358947558E-01   0.00000000000000E+00   0.00000000000000E+00   1.44300276699748E-09   9.83703671966099E-36
      1.44300276699748E-09   6.38586167609456E-18
      1.47652743287848E-01
      0.00000000000000E+00   2.84209930988494E-10   0.00000000000000E+00   0.00000000000000E+00  -1.46868732252028E-09
      5.59886069990288E-34  -1.46868732252028E-09   5.63641092413210E-18   0.00000000000000E+00   0.00000000000000E+00
      0.00000000000000E+00   0.00000000000000E+00   0.00000000000000E+00   0.00000000000000E+00   0.00000000000000E+00
      2.94033719827636E-18   0.00000000000000E+00   0.00000000000000E+00   0.00000000000000E+00   0.00000000000000E+00
     -2.31412600560115E-19  -5.66923292663724E-34  -2.31412600560116E-19  -1.50761707805538E-17   1.26981359227549E-01
      1.26981358942863E-01   0.00000000000000E+00   0.00000000000000E+00   1.46868732275170E-09   7.03722267343588E-36
      1.46868732275170E-09   6.49942265814529E-18
      1.57652743287848E-01
      0.00000000000000E+00   2.89021381270338E-10   0.00000000000000E+00   0.00000000000000E+00  -1.49465333556129E-09
      5.73065704006723E-34  -1.49465333556129E-09   5.63346512430651E-18   0.00000000000000E+00   0.00000000000000E+00
      0.00000000000000E+00   0.00000000000000E+00   0.00000000000000E+00   0.00000000000000E+00   0.00000000000000E+00
      2.82986886700557E-18   0.00000000000000E+00   0.00000000000000E+00   0.00000000000000E+00   0.00000000000000E+00
     -2.25731156472479E-20  -5.78608112514311E-34  -2.25731156472485E-20  -1.50764309561971E-17   1.35581359227549E-01
      1.35581358938114E-01   0.00000000000000E+00   0.00000000000000E+00   1.49465333558386E-09   5.54240850758759E-36
      1.49465333558386E-09   6.61309696488498E-18
      1.67652743287848E-01
      0.00000000000000E+00   2.93881434988461E-10   0.00000000000000E+00   0.00000000000000E+00  -1.52090584783087E-09
      5.71265304372501E-34  -1.52090584783087E-09   5.63052000457697E-18   0.00000000000000E+00   0.00000000000000E+00
      0.00000000000000E+00   0.00000000000000E+00   0.00000000000000E+00   0.00000000000000E+00   0.00000000000000E+00
      2.71943679924903E-18   0.00000000000000E+00   0.00000000000000E+00   0.00000000000000E+00   0.00000000000000E+00
     -2.44617832211748E-19  -5.75384449756580E-34  -2.44617832211748E-19  -1.50768334813213E-17   1.44181359227549E-01
      1.44181358933312E-01   0.00000000000000E+00   0.00000000000000E+00   1.52090584807549E-09   4.11914538407815E-36
      1.52090584807549E-09   6.72687667749532E-18
      1.77652743287848E-01
      0.00000000000000E+00   2.98790033042774E-10   0.00000000000000E+00   0.00000000000000E+00  -1.54744432258353E-09
      5.72055905035073E-34  -1.54744432258353E-09   5.62757551770382E-18   0.00000000000000E+00   0.00000000000000E+00
      0.00000000000000E+00   0.00000000000000E+00   0.00000000000000E+00   0.00000000000000E+00   0.00000000000000E+00
      2.60903803004536E-18   0.00000000000000E+00   0.00000000000000E+00   0.00000000000000E+00   0.00000000000000E+00
      5.76556040037436E-20  -5.74960443789711E-34   5.76556040037430E-20  -1.50773680402214E-17   1.52781359227549E-01
      1.52781358928463E-01   0.00000000000000E+00   0.00000000000000E+00   1.54744432252588E-09   2.90453875463746E-36
      1.54744432252588E-09   6.84075449247223E-18
      1.87652743287848E-01
      0.00000000000000E+00   3.03746666693296E-10   0.00000000000000E+00   0.00000000000000E+00  -1.57426620615542E-09