DF-ISE text

Info {
  version   = 1.0
  type      = xyplot
  datasets  = [
    "time"
    "source OuterVoltage" "source InnerVoltage" "source QuasiFermiPotential" "source DisplacementCurrent" "source eCurrent"
    "source hCurrent" "source TotalCurrent" "source Charge" "gate OuterVoltage" "gate InnerVoltage"
    "gate QuasiFermiPotential" "gate DisplacementCurrent" "gate eCurrent" "gate hCurrent" "gate TotalCurrent"
    "gate Charge" "substrate OuterVoltage" "substrate InnerVoltage" "substrate QuasiFermiPotential" "substrate DisplacementCurrent"
    "substrate eCurrent" "substrate hCurrent" "substrate TotalCurrent" "substrate Charge" "drain OuterVoltage"
    "drain InnerVoltage" "drain QuasiFermiPotential" "drain DisplacementCurrent" "drain eCurrent" "drain hCurrent"
    "drain TotalCurrent" "drain Charge" ]
  functions = [
    Time
    OuterVoltage InnerVoltage QuasiFermiPotential DisplacementCurrent eCurrent
    hCurrent TotalCurrent Charge OuterVoltage InnerVoltage
    QuasiFermiPotential DisplacementCurrent eCurrent hCurrent TotalCurrent
    Charge OuterVoltage InnerVoltage QuasiFermiPotential DisplacementCurrent
    eCurrent hCurrent TotalCurrent Charge OuterVoltage
    InnerVoltage QuasiFermiPotential DisplacementCurrent eCurrent hCurrent
    TotalCurrent Charge ]
}

Data {
      0.00000000000000E+00
      0.00000000000000E+00   0.00000000000000E+00   0.00000000000000E+00   0.00000000000000E+00  -4.36343332096852E-22
     -1.32864648159306E-34  -4.36343332096985E-22   4.52474816246346E-18   0.00000000000000E+00   0.00000000000000E+00
      0.00000000000000E+00   0.00000000000000E+00   0.00000000000000E+00   0.00000000000000E+00   0.00000000000000E+00
      3.64197521937893E-18   0.00000000000000E+00   0.00000000000000E+00   0.00000000000000E+00   0.00000000000000E+00
      3.58236439729079E-22   3.02088556103337E-34   3.58236439729381E-22  -1.18824168761850E-17   0.00000000000000E+00
      0.00000000000000E+00   0.00000000000000E+00   0.00000000000000E+00   7.81068923677734E-23  -1.69223907944031E-34
      7.81068923676042E-23   3.71569349434269E-18
      0.00000000000000E+00
      0.00000000000000E+00   5.81295805110929E-19   0.00000000000000E+00   0.00000000000000E+00  -3.60619924092566E-20
     -1.61065639686272E-34  -3.60619924092568E-20   4.52306489896065E-18   0.00000000000000E+00   0.00000000000000E+00
      0.00000000000000E+00   0.00000000000000E+00   0.00000000000000E+00   0.00000000000000E+00   0.00000000000000E+00
      3.63615653330247E-18   0.00000000000000E+00   0.00000000000000E+00   0.00000000000000E+00   0.00000000000000E+00
      4.69806511344751E-20   3.01259723132626E-34   4.69806511344754E-20  -1.18737265398663E-17   0.00000000000000E+00
      0.00000000000000E+00   0.00000000000000E+00   0.00000000000000E+00  -1.09186587252185E-20  -1.40194083446354E-34
     -1.09186587252186E-20   3.71450510760315E-18
      1.00000000000000E-03
      0.00000000000000E+00   2.18583632702287E-11   0.00000000000000E+00   0.00000000000000E+00  -9.26681165988085E-11
     -1.30558615679862E-34  -9.26681165988085E-11   4.52281522010120E-18   0.00000000000000E+00   0.00000000000000E+00
      0.00000000000000E+00   0.00000000000000E+00   0.00000000000000E+00   0.00000000000000E+00   0.00000000000000E+00
      3.62709142836505E-18   0.00000000000000E+00   0.00000000000000E+00   0.00000000000000E+00   0.00000000000000E+00
      6.44834951194349E-21   2.80295582941781E-34   6.44834951194377E-21  -1.18734930487642E-17   8.60000000000000E-04
      8.59999977942852E-04   0.00000000000000E+00   0.00000000000000E+00   9.26681165923601E-11  -1.49736967261920E-34
      9.26681165923601E-11   3.72358640029802E-18
      2.08666666666667E-03
      0.00000000000000E+00   4.42385552034098E-11   0.00000000000000E+00   0.00000000000000E+00  -1.87542299377515E-10
     -1.51703649073289E-34  -1.87542299377515E-10   4.52254394813273E-18   0.00000000000000E+00   0.00000000000000E+00
      0.00000000000000E+00   0.00000000000000E+00   0.00000000000000E+00   0.00000000000000E+00   0.00000000000000E+00
      3.61724281446399E-18   0.00000000000000E+00   0.00000000000000E+00   0.00000000000000E+00   0.00000000000000E+00
      3.81891764959122E-16   3.01575973957000E-34   3.81891764959122E-16  -1.18732443212199E-17   1.79453333333333E-03
      1.79453328869214E-03   0.00000000000000E+00   0.00000000000000E+00   1.87541917485750E-10  -1.49872324883711E-34
      1.87541917485750E-10   3.73345755862318E-18
      3.28200000000000E-03
      0.00000000000000E+00   6.72324141424968E-11   0.00000000000000E+00   0.00000000000000E+00  -2.85008295696522E-10
     -1.61562126874302E-34  -2.85008295696522E-10   4.52224560332434E-18   0.00000000000000E+00   0.00000000000000E+00
      0.00000000000000E+00   0.00000000000000E+00   0.00000000000000E+00   0.00000000000000E+00   0.00000000000000E+00
      3.60641186482015E-18   0.00000000000000E+00   0.00000000000000E+00   0.00000000000000E+00   0.00000000000000E+00
      5.15786147145457E-16   3.16024343623288E-34   5.15786147145457E-16  -1.18729766553570E-17   2.82252000000000E-03
      2.82251993215574E-03   0.00000000000000E+00   0.00000000000000E+00   2.85007779910375E-10  -1.54462216748986E-34
      2.85007779910375E-10   3.74431918721251E-18
      4.59686666666667E-03
      0.00000000000000E+00   9.06429604470824E-11   0.00000000000000E+00   0.00000000000000E+00  -3.84229869679634E-10
     -1.22919151083441E-34  -3.84229869679634E-10   4.52191748874648E-18   0.00000000000000E+00   0.00000000000000E+00
      0.00000000000000E+00   0.00000000000000E+00   0.00000000000000E+00   0.00000000000000E+00   0.00000000000000E+00
      3.59450082321713E-18   0.00000000000000E+00   0.00000000000000E+00   0.00000000000000E+00   0.00000000000000E+00
      7.11998820852617E-16   2.55753432045302E-34   7.11998820852617E-16  -1.18726892997841E-17   3.95330533333333E-03
      3.95330524186541E-03   0.00000000000000E+00   0.00000000000000E+00   3.84229157680814E-10  -1.32834280961862E-34
      3.84229157680814E-10   3.75627098782051E-18
      6.04322000000000E-03
      0.00000000000000E+00   1.14246044129533E-10   0.00000000000000E+00   0.00000000000000E+00  -4.84253959470208E-10
     -1.24319918959554E-34  -4.84253959470208E-10   4.52155663950092E-18   0.00000000000000E+00   0.00000000000000E+00
      0.00000000000000E+00   0.00000000000000E+00   0.00000000000000E+00   0.00000000000000E+00   0.00000000000000E+00
      3.58140224185058E-18   0.00000000000000E+00   0.00000000000000E+00   0.00000000000000E+00   0.00000000000000E+00
     -7.80489532725240E-21   2.58218879166902E-34  -7.80489532725214E-21  -1.18723816358402E-17   5.19716920000000E-03
      5.19716908471461E-03   0.00000000000000E+00   0.00000000000000E+00   4.84253959478013E-10  -1.33898960207348E-34
      4.84253959478013E-10   3.76942275448870E-18
      7.62456631111111E-03
      0.00000000000000E+00   1.37654236767403E-10   0.00000000000000E+00   0.00000000000000E+00  -5.83440282491691E-10
     -1.50341632093136E-34  -5.83440282491691E-10   4.52116220101572E-18   0.00000000000000E+00   0.00000000000000E+00
      0.00000000000000E+00   0.00000000000000E+00   0.00000000000000E+00   0.00000000000000E+00   0.00000000000000E+00
      3.56708531032217E-18   0.00000000000000E+00   0.00000000000000E+00   0.00000000000000E+00   0.00000000000000E+00
      2.45086470467908E-20   2.75882006603284E-34   2.45086470467911E-20  -1.18720551841806E-17   6.55712702755556E-03
      6.55712688864860E-03   0.00000000000000E+00   0.00000000000000E+00   5.83440282467182E-10  -1.25540374510148E-34
      5.83440282467182E-10   3.78380767284269E-18
      9.35350494459260E-03
      0.00000000000000E+00   1.60611290381294E-10   0.00000000000000E+00   0.00000000000000E+00  -6.80701580301776E-10
     -1.33996390381480E-34  -6.80701580301776E-10   4.52073105318104E-18   0.00000000000000E+00   0.00000000000000E+00
      0.00000000000000E+00   0.00000000000000E+00   0.00000000000000E+00   0.00000000000000E+00   0.00000000000000E+00
      3.55143701965407E-18   0.00000000000000E+00   0.00000000000000E+00   0.00000000000000E+00   0.00000000000000E+00
      4.71515496021483E-22   2.54480907591915E-34   4.71515496021737E-22  -1.18717099061786E-17   8.04401425234963E-03
      8.04401409027611E-03   0.00000000000000E+00   0.00000000000000E+00   6.80701580301304E-10  -1.20484517210436E-34
      6.80701580301304E-10   3.79954183334341E-18
      1.12438111838657E-02
      0.00000000000000E+00   1.82849537435712E-10   0.00000000000000E+00   0.00000000000000E+00  -7.74904092182526E-10
     -1.30419638341003E-34  -7.74904092182526E-10   4.52025978674148E-18   0.00000000000000E+00   0.00000000000000E+00
      0.00000000000000E+00   0.00000000000000E+00   0.00000000000000E+00   0.00000000000000E+00   0.00000000000000E+00
      3.53433391877497E-18   0.00000000000000E+00   0.00000000000000E+00   0.00000000000000E+00   0.00000000000000E+00
      1.29793879684701E-21   2.22556663294217E-34   1.29793879684723E-21  -1.18713460308517E-17   9.66967761812449E-03
      9.66967743360947E-03   0.00000000000000E+00   0.00000000000000E+00   7.74904092181228E-10  -9.21370249532139E-35
      7.74904092181228E-10   3.81675232533525E-18
      1.33105460054709E-02
      0.00000000000000E+00   2.04097427339188E-10   0.00000000000000E+00   0.00000000000000E+00  -8.64898932864732E-10
     -1.30366375975559E-34  -8.64898932864732E-10   4.51974467649708E-18   0.00000000000000E+00   0.00000000000000E+00
      0.00000000000000E+00   0.00000000000000E+00   0.00000000000000E+00   0.00000000000000E+00   0.00000000000000E+00
      3.51564115282989E-18   0.00000000000000E+00   0.00000000000000E+00   0.00000000000000E+00   0.00000000000000E+00
     -1.76576103134807E-20   2.38119430188780E-34  -1.76576103134804E-20  -1.18709641167273E-17   1.14470695647050E-02
      1.14470693587475E-02   0.00000000000000E+00   0.00000000000000E+00   8.64898932882389E-10  -1.07753054213221E-34
      8.64898932882389E-10   3.83557828740034E-18
      1.55701760770927E-02
      0.00000000000000E+00   2.24089870603126E-10   0.00000000000000E+00   0.00000000000000E+00  -9.49565766638402E-10
     -1.29716200359485E-34  -9.49565766638402E-10   4.51918165197667E-18   0.00000000000000E+00   0.00000000000000E+00
      0.00000000000000E+00   0.00000000000000E+00   0.00000000000000E+00   0.00000000000000E+00   0.00000000000000E+00
      3.49521141168780E-18   0.00000000000000E+00   0.00000000000000E+00   0.00000000000000E+00   0.00000000000000E+00
     -1.65438809496228E-20   2.25099020894526E-34  -1.65438809496225E-20  -1.18705651217583E-17   1.33903514262997E-02
      1.33903512001662E-02   0.00000000000000E+00   0.00000000000000E+00   9.49565766654945E-10  -9.53828205350405E-35
      9.49565766654945E-10   3.85617205809380E-18
      1.80407049553991E-02
      0.00000000000000E+00   2.42580861680210E-10   0.00000000000000E+00   0.00000000000000E+00  -1.02786659270784E-09
     -1.24942844341670E-34  -1.02786659270784E-09   4.51856626533768E-18   0.00000000000000E+00   0.00000000000000E+00
      0.00000000000000E+00   0.00000000000000E+00   0.00000000000000E+00   0.00000000000000E+00   0.00000000000000E+00
      3.47288377976813E-18   0.00000000000000E+00   0.00000000000000E+00   0.00000000000000E+00   0.00000000000000E+00
     -2.74249180689253E-20   2.19802851061086E-34  -2.74249180689251E-20  -1.18701504812203E-17   1.55150062616432E-02
      1.55150060168486E-02   0.00000000000000E+00   0.00000000000000E+00   1.02786659273527E-09  -9.48600067194161E-35
      1.02786659273527E-09   3.87870043611447E-18
      2.07418165290141E-02
      0.00000000000000E+00   2.59357793954905E-10   0.00000000000000E+00   0.00000000000000E+00  -1.09890659146810E-09
     -1.49715432383961E-34  -1.09890659146810E-09   4.51789365623192E-18   0.00000000000000E+00   0.00000000000000E+00
      0.00000000000000E+00   0.00000000000000E+00   0.00000000000000E+00   0.00000000000000E+00   0.00000000000000E+00
      3.44848247914120E-18   0.00000000000000E+00   0.00000000000000E+00   0.00000000000000E+00   0.00000000000000E+00
     -1.01545778112038E-20   2.22079097343279E-34  -1.01545778112036E-20  -1.18697221963046E-17   1.78379622149521E-02
      1.78379619532257E-02   0.00000000000000E+00   0.00000000000000E+00   1.09890659147826E-09  -7.23636649593181E-35
      1.09890659147826E-09   3.90334606093149E-18
      2.36950318494999E-02
      0.00000000000000E+00   2.74258008653729E-10   0.00000000000000E+00   0.00000000000000E+00  -1.16200398185512E-09
     -1.12892976874311E-34  -1.16200398185512E-09   4.51715851328687E-18   0.00000000000000E+00   0.00000000000000E+00
      0.00000000000000E+00   0.00000000000000E+00   0.00000000000000E+00   0.00000000000000E+00   0.00000000000000E+00
      3.42181549163343E-18   0.00000000000000E+00   0.00000000000000E+00   0.00000000000000E+00   0.00000000000000E+00
     -1.78006453903153E-20   2.01396909147694E-34  -1.78006453903151E-20  -1.18692829281216E-17   2.03777273905699E-02
      2.03777271138053E-02   0.00000000000000E+00   0.00000000000000E+00   1.16200398187292E-09  -8.85039322733826E-35
      1.16200398187292E-09   3.93030892320127E-18
      2.69238805998977E-02
      0.00000000000000E+00   2.87185185643070E-10   0.00000000000000E+00   0.00000000000000E+00  -1.21675985116282E-09
     -1.39658527631872E-34  -1.21675985116282E-09   4.51635503193010E-18   0.00000000000000E+00   0.00000000000000E+00
      0.00000000000000E+00   0.00000000000000E+00   0.00000000000000E+00   0.00000000000000E+00   0.00000000000000E+00
      3.39267305214421E-18   0.00000000000000E+00   0.00000000000000E+00   0.00000000000000E+00   0.00000000000000E+00
     -3.36651851833127E-20   2.22404278385167E-34  -3.36651851833125E-20  -1.18688361024355E-17   2.31545373159120E-02
      2.31545370261003E-02   0.00000000000000E+00   0.00000000000000E+00   1.21675985119649E-09  -8.27457507532953E-35
      1.21675985119649E-09   3.95980801836125E-18
      3.04540885669992E-02
      0.00000000000000E+00   2.98125284304052E-10   0.00000000000000E+00   0.00000000000000E+00  -1.26312501263059E-09
     -1.35042464824948E-34  -1.26312501263059E-09   4.51547686817812E-18   0.00000000000000E+00   0.00000000000000E+00
      0.00000000000000E+00   0.00000000000000E+00   0.00000000000000E+00   0.00000000000000E+00   0.00000000000000E+00
      3.36082599810274E-18   0.00000000000000E+00   0.00000000000000E+00   0.00000000000000E+00   0.00000000000000E+00
     -1.30809932916951E-20   1.98746395708335E-34  -1.30809932916949E-20  -1.18683860216611E-17   2.61905161676193E-02
      2.61905158667661E-02   0.00000000000000E+00   0.00000000000000E+00   1.26312501264367E-09  -6.37039308833871E-35
      1.26312501264367E-09   3.99208315538021E-18
      3.43137826110303E-02
      0.00000000000000E+00   3.07160174919163E-10   0.00000000000000E+00   0.00000000000000E+00  -1.30145767772794E-09
     -1.53587271326033E-34  -1.30145767772794E-09   4.51451708794764E-18   0.00000000000000E+00   0.00000000000000E+00
      0.00000000000000E+00   0.00000000000000E+00   0.00000000000000E+00   0.00000000000000E+00   0.00000000000000E+00
      3.32602395698834E-18   0.00000000000000E+00   0.00000000000000E+00   0.00000000000000E+00   0.00000000000000E+00
      3.41534301056419E-20   2.20162013520790E-34   3.41534301056421E-20  -1.18679379776862E-17   2.95098530454860E-02
      2.95098527355150E-02   0.00000000000000E+00   0.00000000000000E+00   1.30145767769378E-09  -6.65747421947579E-35
      1.30145767769378E-09   4.02739693275018E-18
      3.85337147658375E-02
      0.00000000000000E+00   3.14474715367386E-10   0.00000000000000E+00   0.00000000000000E+00  -1.33255232300955E-09
     -1.36774320649785E-34  -1.33255232300955E-09   4.51346811160096E-18   0.00000000000000E+00   0.00000000000000E+00
      0.00000000000000E+00   0.00000000000000E+00   0.00000000000000E+00   0.00000000000000E+00   0.00000000000000E+00
      3.28799336093956E-18   0.00000000000000E+00   0.00000000000000E+00   0.00000000000000E+00   0.00000000000000E+00
      7.70707185095883E-20   1.89851384597979E-34   7.70707185095885E-20  -1.18674983709524E-17   3.31389946986203E-02
      3.31389943812695E-02   0.00000000000000E+00   0.00000000000000E+00   1.33255232293248E-09  -5.30770639481943E-35
      1.33255232293248E-09   4.06603689841191E-18
      4.31475072550935E-02
      0.00000000000000E+00   3.20353530164143E-10   0.00000000000000E+00   0.00000000000000E+00  -1.35762506981816E-09
     -1.27544529486113E-34  -1.35762506981816E-09   4.51232165325592E-18   0.00000000000000E+00   0.00000000000000E+00
      0.00000000000000E+00   0.00000000000000E+00   0.00000000000000E+00   0.00000000000000E+00   0.00000000000000E+00
      3.24643526644398E-18   0.00000000000000E+00   0.00000000000000E+00   0.00000000000000E+00   0.00000000000000E+00
      1.02932997072406E-19   1.72355233922820E-34   1.02932997072406E-19  -1.18670748266148E-17   3.71068562393804E-02
      3.71068559161017E-02   0.00000000000000E+00   0.00000000000000E+00   1.35762506971522E-09  -4.48107044367072E-35
      1.35762506971522E-09   4.10831790691491E-18
      4.81919203766800E-02
      0.00000000000000E+00   3.25162967039508E-10   0.00000000000000E+00   0.00000000000000E+00  -1.37823550807929E-09
     -1.26293797984235E-34  -1.37823550807929E-09   4.51106865452768E-18   0.00000000000000E+00   0.00000000000000E+00
      0.00000000000000E+00   0.00000000000000E+00   0.00000000000000E+00   0.00000000000000E+00   0.00000000000000E+00
      3.20102296197035E-18   0.00000000000000E+00   0.00000000000000E+00   0.00000000000000E+00   0.00000000000000E+00
      1.20977227339033E-19   1.59200417799131E-34   1.20977227339033E-19  -1.18666763066869E-17   4.14450515239448E-02
      4.14450511958216E-02   0.00000000000000E+00   0.00000000000000E+00   1.37823550795832E-09  -3.29066198148957E-35
      1.37823550795832E-09   4.15458469018888E-18
      5.37071453896146E-02
      0.00000000000000E+00   3.29317225412932E-10   0.00000000000000E+00   0.00000000000000E+00  -1.39614282605695E-09
     -1.49494151239208E-34  -1.39614282605695E-09   4.50969921239872E-18   0.00000000000000E+00   0.00000000000000E+00
      0.00000000000000E+00   0.00000000000000E+00   0.00000000000000E+00   0.00000000000000E+00   0.00000000000000E+00
      3.15139934766334E-18   0.00000000000000E+00   0.00000000000000E+00   0.00000000000000E+00   0.00000000000000E+00
      2.61848151866853E-20   1.85667429577245E-34   2.61848151866855E-20  -1.18663132207676E-17   4.61881450350685E-02
      4.61881447027679E-02   0.00000000000000E+00   0.00000000000000E+00   1.39614282603077E-09  -3.61732783380368E-35
      1.39614282603077E-09   4.20521466070553E-18
      5.97371247370897E-02
      0.00000000000000E+00   3.33229372339640E-10   0.00000000000000E+00   0.00000000000000E+00  -1.41309911032436E-09
     -1.37245583864829E-34  -1.41309911032436E-09   4.50820250109088E-18   0.00000000000000E+00   0.00000000000000E+00
      0.00000000000000E+00   0.00000000000000E+00   0.00000000000000E+00   0.00000000000000E+00   0.00000000000000E+00
      3.09717407563652E-18   0.00000000000000E+00   0.00000000000000E+00   0.00000000000000E+00   0.00000000000000E+00
     -1.25331921832290E-19   1.63212804273919E-34  -1.25331921832290E-19  -1.18659975410888E-17   5.13739272738972E-02
      5.13739269376710E-02   0.00000000000000E+00   0.00000000000000E+00   1.41309911044969E-09  -2.59672204090894E-35
      1.41309911044969E-09   4.26062096436139E-18
      6.63299021569959E-02
      0.00000000000000E+00   3.37246740201326E-10   0.00000000000000E+00   0.00000000000000E+00  -1.43057279608947E-09
     -1.38956699669575E-34  -1.43057279608947E-09   4.50656668768598E-18   0.00000000000000E+00   0.00000000000000E+00
      0.00000000000000E+00   0.00000000000000E+00   0.00000000000000E+00   0.00000000000000E+00   0.00000000000000E+00
      3.03792043576240E-18   0.00000000000000E+00   0.00000000000000E+00   0.00000000000000E+00   0.00000000000000E+00
     -4.31587408008076E-21   1.62758643507339E-34  -4.31587408008060E-21  -1.18657429271245E-17   5.70437158550165E-02
      5.70437155147674E-02   0.00000000000000E+00   0.00000000000000E+00   1.43057279609379E-09  -2.38019438377635E-35
      1.43057279609379E-09   4.32125580367610E-18
      7.34940536199606E-02
      0.00000000000000E+00   3.41570418981037E-10   0.00000000000000E+00   0.00000000000000E+00  -1.44940695793178E-09
     -1.58604595595733E-34  -1.44940695793178E-09   4.50478973915123E-18   0.00000000000000E+00   0.00000000000000E+00
      0.00000000000000E+00   0.00000000000000E+00   0.00000000000000E+00   0.00000000000000E+00   0.00000000000000E+00
      2.97356666100515E-18   0.00000000000000E+00   0.00000000000000E+00   0.00000000000000E+00   0.00000000000000E+00
      2.71708958308818E-21   1.79135601904823E-34   2.71708958308836E-21  -1.18655656361575E-17   6.32048861131661E-02
      6.32048857685938E-02   0.00000000000000E+00   0.00000000000000E+00   1.44940695792907E-09  -2.05310063090902E-35
      1.44940695792907E-09   4.38720923600114E-18
      8.12790982097155E-02
      0.00000000000000E+00   3.46320954896357E-10   0.00000000000000E+00   0.00000000000000E+00  -1.47011022576209E-09
     -1.39450578624038E-34  -1.47011022576209E-09   4.50285946939444E-18   0.00000000000000E+00   0.00000000000000E+00
      0.00000000000000E+00   0.00000000000000E+00   0.00000000000000E+00   0.00000000000000E+00   0.00000000000000E+00
      2.90367316681610E-18   0.00000000000000E+00   0.00000000000000E+00   0.00000000000000E+00   0.00000000000000E+00
     -9.13038400832172E-21   1.55506398298347E-34  -9.13038400832157E-21  -1.18654812417242E-17   6.99000244603554E-02
      6.99000241110392E-02   0.00000000000000E+00   0.00000000000000E+00   1.47011022577122E-09  -1.60558196743084E-35
      1.47011022577122E-09   4.45894860551359E-18
      8.97388466639159E-02
      0.00000000000000E+00   3.51569787457847E-10   0.00000000000000E+00   0.00000000000000E+00  -1.49299103173351E-09
     -1.39141637915394E-34  -1.49299103173351E-09   4.50076263952326E-18   0.00000000000000E+00   0.00000000000000E+00
      0.00000000000000E+00   0.00000000000000E+00   0.00000000000000E+00   0.00000000000000E+00   0.00000000000000E+00
      2.82776228330406E-18   0.00000000000000E+00   0.00000000000000E+00   0.00000000000000E+00   0.00000000000000E+00
     -1.42816828100235E-21   1.52569951170827E-34  -1.42816828100219E-21  -1.18655068974783E-17   7.71754081309677E-02
      7.71754077764149E-02   0.00000000000000E+00   0.00000000000000E+00   1.49299103173494E-09  -1.34283132554328E-35
      1.49299103173494E-09   4.53698197465096E-18
      9.89317733174804E-02
      0.00000000000000E+00   3.57345590824981E-10   0.00000000000000E+00   0.00000000000000E+00  -1.51817598511073E-09
     -1.27483528478371E-34  -1.51817598511073E-09   4.49848486996814E-18   0.00000000000000E+00   0.00000000000000E+00
      0.00000000000000E+00   0.00000000000000E+00   0.00000000000000E+00   0.00000000000000E+00   0.00000000000000E+00
      2.74531502345723E-18   0.00000000000000E+00   0.00000000000000E+00   0.00000000000000E+00   0.00000000000000E+00
     -1.25207370030021E-20   1.37532793821711E-34  -1.25207370030020E-20  -1.18656614615991E-17   8.50813250530331E-02
      8.50813246927177E-02   0.00000000000000E+00   0.00000000000000E+00   1.51817598512325E-09  -1.00492653433401E-35
      1.51817598512325E-09   4.62186156817376E-18
      1.08921420281020E-01
      0.00000000000000E+00   3.63654272125731E-10   0.00000000000000E+00   0.00000000000000E+00  -1.54570024708913E-09
     -1.10126441159356E-34  -1.54570024708913E-09   4.49601053923152E-18   0.00000000000000E+00   0.00000000000000E+00
      0.00000000000000E+00   0.00000000000000E+00   0.00000000000000E+00   0.00000000000000E+00   0.00000000000000E+00
      2.65576746243860E-18   0.00000000000000E+00   0.00000000000000E+00   0.00000000000000E+00   0.00000000000000E+00
     -1.50955505576363E-20   1.16835608075644E-34  -1.50955505576362E-20  -1.18659654802441E-17   9.36724214416775E-02
      9.36724210750675E-02   0.00000000000000E+00   0.00000000000000E+00   1.54570024710422E-09  -6.70916691628787E-36
      1.54570024710422E-09   4.71418747857400E-18
      1.18921420281020E-01
      0.00000000000000E+00   3.69991277645880E-10   0.00000000000000E+00   0.00000000000000E+00  -1.57337026146277E-09
     -1.22423404623547E-34  -1.57337026146277E-09   4.49353444354807E-18   0.00000000000000E+00   0.00000000000000E+00
      0.00000000000000E+00   0.00000000000000E+00   0.00000000000000E+00   0.00000000000000E+00   0.00000000000000E+00
      2.56616924251847E-18   0.00000000000000E+00   0.00000000000000E+00   0.00000000000000E+00   0.00000000000000E+00
     -3.51560133546301E-21   1.27811386702692E-34  -3.51560133546288E-21  -1.18663984077363E-17   1.02272421441678E-01
      1.02272421068751E-01   0.00000000000000E+00   0.00000000000000E+00   1.57337026146628E-09  -5.38798207914541E-36
      1.57337026146628E-09   4.80669472166975E-18
      1.28921420281020E-01
      0.00000000000000E+00   3.76365183242443E-10   0.00000000000000E+00   0.00000000000000E+00  -1.60122413992132E-09
     -1.56520981512205E-34  -1.60122413992132E-09   4.49105907103184E-18   0.00000000000000E+00   0.00000000000000E+00
      0.00000000000000E+00   0.00000000000000E+00   0.00000000000000E+00   0.00000000000000E+00   0.00000000000000E+00
      2.47660875856188E-18   0.00000000000000E+00   0.00000000000000E+00   0.00000000000000E+00   0.00000000000000E+00
      7.29907352342344E-21   1.60588380157457E-34   7.29907352342360E-21  -1.18669477318137E-17   1.10872421441678E-01
      1.10872421062406E-01   0.00000000000000E+00   0.00000000000000E+00   1.60122413991402E-09  -4.06739864525161E-36
      1.60122413991402E-09   4.89927990221999E-18
      1.38921420281020E-01
      0.00000000000000E+00   3.82791690877705E-10   0.00000000000000E+00   0.00000000000000E+00  -1.62932862352888E-09
     -1.32608663923848E-34  -1.62932862352888E-09   4.48858435654537E-18   0.00000000000000E+00   0.00000000000000E+00
      0.00000000000000E+00   0.00000000000000E+00   0.00000000000000E+00   0.00000000000000E+00   0.00000000000000E+00
      2.38708219510403E-18   0.00000000000000E+00   0.00000000000000E+00   0.00000000000000E+00   0.00000000000000E+00
      8.76186512655692E-21   1.35481800854636E-34   8.76186512655705E-21  -1.18676025553703E-17   1.19472421441678E-01
      1.19472421056011E-01   0.00000000000000E+00   0.00000000000000E+00   1.62932862352012E-09  -2.87313693078740E-36
      1.62932862352012E-09   4.99193600372093E-18
      1.48921420281020E-01
      0.00000000000000E+00   3.89280321595660E-10   0.00000000000000E+00   0.00000000000000E+00  -1.65772367788239E-09
     -1.46212411152327E-34  -1.65772367788239E-09   4.48611024479227E-18   0.00000000000000E+00   0.00000000000000E+00
      0.00000000000000E+00   0.00000000000000E+00   0.00000000000000E+00   0.00000000000000E+00   0.00000000000000E+00
      2.29758628087697E-18   0.00000000000000E+00   0.00000000000000E+00   0.00000000000000E+00   0.00000000000000E+00
     -9.94632708350681E-21   1.48516557572058E-34  -9.94632708350666E-21  -1.18683531977331E-17   1.28072421441678E-01
      1.28072421049549E-01   0.00000000000000E+00   0.00000000000000E+00   1.65772367789234E-09  -2.30414641973073E-36
      1.65772367789234E-09   5.08465667206384E-18
      1.58921420281020E-01
      0.00000000000000E+00   3.95835405468759E-10   0.00000000000000E+00   0.00000000000000E+00  -1.68642716044243E-09
     -1.36471818109663E-34  -1.68642716044243E-09   4.48363668681102E-18   0.00000000000000E+00   0.00000000000000E+00
      0.00000000000000E+00   0.00000000000000E+00   0.00000000000000E+00   0.00000000000000E+00   0.00000000000000E+00
      2.20811818875015E-18   0.00000000000000E+00   0.00000000000000E+00   0.00000000000000E+00   0.00000000000000E+00
      7.75513479441652E-21   1.38078497912444E-34   7.75513479441666E-21  -1.18691910188529E-17   1.36672421441678E-01
      1.36672421043016E-01   0.00000000000000E+00   0.00000000000000E+00   1.68642716043467E-09  -1.60667980278126E-36
      1.68642716043467E-09   5.17743614329168E-18
      1.68921420281020E-01
      0.00000000000000E+00   4.02457988829452E-10   0.00000000000000E+00   0.00000000000000E+00  -1.71544304130338E-09
     -1.32402816574348E-34  -1.71544304130338E-09   4.48116363829387E-18   0.00000000000000E+00   0.00000000000000E+00
      0.00000000000000E+00   0.00000000000000E+00   0.00000000000000E+00   0.00000000000000E+00   0.00000000000000E+00
      2.11867543284155E-18   0.00000000000000E+00   0.00000000000000E+00   0.00000000000000E+00   0.00000000000000E+00
     -7.57419194845816E-21   1.33739237060814E-34  -7.57419194845803E-21  -1.18701082483979E-17   1.45272421441678E-01
      1.45272421036411E-01   0.00000000000000E+00   0.00000000000000E+00   1.71544304131096E-09  -1.33642048646644E-36
      1.71544304131096E-09   5.27026917726243E-18
      1.78921420281020E-01
      0.00000000000000E+00   4.09147315993192E-10   0.00000000000000E+00   0.00000000000000E+00  -1.74476781191626E-09
     -1.48933673586920E-34  -1.74476781191626E-09   4.47869105900970E-18   0.00000000000000E+00   0.00000000000000E+00
      0.00000000000000E+00   0.00000000000000E+00   0.00000000000000E+00   0.00000000000000E+00   0.00000000000000E+00
      2.02925580677584E-18   0.00000000000000E+00   0.00000000000000E+00   0.00000000000000E+00   0.00000000000000E+00
     -1.69417455347785E-21   1.49878149838381E-34  -1.69417455347770E-21  -1.18710978691617E-17   1.53872421441678E-01
      1.53872421029740E-01   0.00000000000000E+00   0.00000000000000E+00   1.74476781191796E-09  -9.44476251461196E-37
      1.74476781191796E-09   5.36315100337615E-18
      1.88921420281020E-01
      0.00000000000000E+00   4.15902036028528E-10   0.00000000000000E+00   0.00000000000000E+00  -1.77439577076332E-09