DF-ISE text

Info {
  version   = 1.0
  type      = xyplot
  datasets  = [
    "time"
    "source OuterVoltage" "source InnerVoltage" "source QuasiFermiPotential" "source DisplacementCurrent" "source eCurrent"
    "source hCurrent" "source TotalCurrent" "source Charge" "gate OuterVoltage" "gate InnerVoltage"
    "gate QuasiFermiPotential" "gate DisplacementCurrent" "gate eCurrent" "gate hCurrent" "gate TotalCurrent"
    "gate Charge" "substrate OuterVoltage" "substrate InnerVoltage" "substrate QuasiFermiPotential" "substrate DisplacementCurrent"
    "substrate eCurrent" "substrate hCurrent" "substrate TotalCurrent" "substrate Charge" "drain OuterVoltage"
    "drain InnerVoltage" "drain QuasiFermiPotential" "drain DisplacementCurrent" "drain eCurrent" "drain hCurrent"
    "drain TotalCurrent" "drain Charge" ]
  functions = [
    Time
    OuterVoltage InnerVoltage QuasiFermiPotential DisplacementCurrent eCurrent
    hCurrent TotalCurrent Charge OuterVoltage InnerVoltage
    QuasiFermiPotential DisplacementCurrent eCurrent hCurrent TotalCurrent
    Charge OuterVoltage InnerVoltage QuasiFermiPotential DisplacementCurrent
    eCurrent hCurrent TotalCurrent Charge OuterVoltage
    InnerVoltage QuasiFermiPotential DisplacementCurrent eCurrent hCurrent
    TotalCurrent Charge ]
}

Data {
      0.00000000000000E+00
      0.00000000000000E+00   0.00000000000000E+00   0.00000000000000E+00   0.00000000000000E+00   1.25949001512905E-21
      6.56091617320032E-34   1.25949001512970E-21   5.11551299999492E-18   0.00000000000000E+00   0.00000000000000E+00
      0.00000000000000E+00   0.00000000000000E+00   0.00000000000000E+00   0.00000000000000E+00   0.00000000000000E+00
      3.52966219041160E-18   0.00000000000000E+00   0.00000000000000E+00   0.00000000000000E+00   0.00000000000000E+00
     -9.37297363460078E-22  -1.31972677837321E-33  -9.37297363461397E-22  -1.29344725020034E-17   0.00000000000000E+00
      0.00000000000000E+00   0.00000000000000E+00   0.00000000000000E+00  -3.22192651668968E-22   6.63635161053174E-34
     -3.22192651668304E-22   4.28929731159690E-18
      0.00000000000000E+00
      0.00000000000000E+00   0.00000000000000E+00   0.00000000000000E+00   0.00000000000000E+00  -1.17839912833887E-20
      6.35499579287461E-34  -1.17839912833881E-20   5.11338513358286E-18   0.00000000000000E+00   0.00000000000000E+00
      0.00000000000000E+00   0.00000000000000E+00   0.00000000000000E+00   0.00000000000000E+00   0.00000000000000E+00
      3.52323144262358E-18   0.00000000000000E+00   0.00000000000000E+00   0.00000000000000E+00   0.00000000000000E+00
      1.37072163453748E-20  -1.29582176565066E-33   1.37072163453735E-20  -1.29243916940872E-17   0.00000000000000E+00
      0.00000000000000E+00   0.00000000000000E+00   0.00000000000000E+00  -1.92322506198612E-21   6.60322186363198E-34
     -1.92322506198546E-21   4.28777511788079E-18
      1.00000000000000E-03
      0.00000000000000E+00   2.59998007839993E-11   0.00000000000000E+00   0.00000000000000E+00  -1.26128432075685E-10
      7.00489843449916E-34  -1.26128432075685E-10   5.11302639332418E-18   0.00000000000000E+00   0.00000000000000E+00
      0.00000000000000E+00   0.00000000000000E+00   0.00000000000000E+00   0.00000000000000E+00   0.00000000000000E+00
      3.51303125218739E-18   0.00000000000000E+00   0.00000000000000E+00   0.00000000000000E+00   0.00000000000000E+00
      3.15447571887467E-20  -1.34089895573063E-33   3.15447571887454E-20  -1.29240717285692E-17   8.60000000000000E-04
      8.59999973669709E-04   0.00000000000000E+00   0.00000000000000E+00   1.26128432044140E-10   6.40409112280716E-34
      1.26128432044140E-10   4.29801408305760E-18
      2.08666666666667E-03
      0.00000000000000E+00   5.25853369092206E-11   0.00000000000000E+00   0.00000000000000E+00  -2.55084641601039E-10
      6.74051480494607E-34  -2.55084641601039E-10   5.11263663463603E-18   0.00000000000000E+00   0.00000000000000E+00
      0.00000000000000E+00   0.00000000000000E+00   0.00000000000000E+00   0.00000000000000E+00   0.00000000000000E+00
      3.50194959203437E-18   0.00000000000000E+00   0.00000000000000E+00   0.00000000000000E+00   0.00000000000000E+00
      5.65349984395823E-16  -1.26166778449616E-33   5.65349984395823E-16  -1.29237302110060E-17   1.79453333333333E-03
      1.79453328007974E-03   0.00000000000000E+00   0.00000000000000E+00   2.55084076251055E-10   5.87616304001550E-34
      2.55084076251055E-10   4.30914398433557E-18
      3.28200000000000E-03
      0.00000000000000E+00   7.98555137786423E-11   0.00000000000000E+00   0.00000000000000E+00  -3.87341567266694E-10
      7.04602492791711E-34  -3.87341567266694E-10   5.11220798619754E-18   0.00000000000000E+00   0.00000000000000E+00
      0.00000000000000E+00   0.00000000000000E+00   0.00000000000000E+00   0.00000000000000E+00   0.00000000000000E+00
      3.48976278252785E-18   0.00000000000000E+00   0.00000000000000E+00   0.00000000000000E+00   0.00000000000000E+00
      5.15955010409759E-21  -1.31845669719531E-33   5.15955010409628E-21  -1.29233618797207E-17   2.82252000000000E-03
      2.82251991913035E-03   0.00000000000000E+00   0.00000000000000E+00   3.87341567261534E-10   6.13854204403599E-34
      3.87341567261534E-10   4.32139111099529E-18
      4.58889777777778E-03
      0.00000000000000E+00   1.07406630694617E-10   0.00000000000000E+00   0.00000000000000E+00  -5.20939189349479E-10
      6.91057596860781E-34  -5.20939189349479E-10   5.11173943219719E-18   0.00000000000000E+00   0.00000000000000E+00
      0.00000000000000E+00   0.00000000000000E+00   0.00000000000000E+00   0.00000000000000E+00   0.00000000000000E+00
      3.47644209364125E-18   0.00000000000000E+00   0.00000000000000E+00   0.00000000000000E+00   0.00000000000000E+00
      3.25247810733653E-21  -1.27611472918726E-33   3.25247810733526E-21  -1.29229678467633E-17   3.94645208888889E-03
      3.94645198011878E-03   0.00000000000000E+00   0.00000000000000E+00   5.20939189346227E-10   5.85057132326483E-34
      5.20939189346227E-10   4.33478632092482E-18
      6.01777268148148E-03
      0.00000000000000E+00   1.34979879753903E-10   0.00000000000000E+00   0.00000000000000E+00  -6.54619305354968E-10
      7.04146886220523E-34  -6.54619305354968E-10   5.11122726567618E-18   0.00000000000000E+00   0.00000000000000E+00
      0.00000000000000E+00   0.00000000000000E+00   0.00000000000000E+00   0.00000000000000E+00   0.00000000000000E+00
      3.46188231373670E-18   0.00000000000000E+00   0.00000000000000E+00   0.00000000000000E+00   0.00000000000000E+00
      3.41227917875088E-20  -1.26466142303744E-33   3.41227917875075E-20  -1.29225472520051E-17   5.17528450607408E-03
      5.17528436938136E-03   0.00000000000000E+00   0.00000000000000E+00   6.54619305320845E-10   5.60514536816922E-34
      6.54619305320845E-10   4.34943767259220E-18
      7.58000924286420E-03
      0.00000000000000E+00   1.62293680435143E-10   0.00000000000000E+00   0.00000000000000E+00  -7.87015525837143E-10
      6.88170010312600E-34  -7.87015525837143E-10   5.11066743632665E-18   0.00000000000000E+00   0.00000000000000E+00
      0.00000000000000E+00   0.00000000000000E+00   0.00000000000000E+00   0.00000000000000E+00   0.00000000000000E+00
      3.44596851022663E-18   0.00000000000000E+00   0.00000000000000E+00   0.00000000000000E+00   0.00000000000000E+00
      4.98253734275440E-21  -1.21556379745303E-33   4.98253734275318E-21  -1.29220994112942E-17   6.51880794886321E-03
      6.51880778451084E-03   0.00000000000000E+00   0.00000000000000E+00   7.87015525832160E-10   5.27393787140428E-34
      7.87015525832160E-10   4.36546346474095E-18
      9.28805454997597E-03
      0.00000000000000E+00   1.89047484246781E-10   0.00000000000000E+00   0.00000000000000E+00  -9.16671062801630E-10
      6.88423071666302E-34  -9.16671062801630E-10   5.11005551876215E-18   0.00000000000000E+00   0.00000000000000E+00
      0.00000000000000E+00   0.00000000000000E+00   0.00000000000000E+00   0.00000000000000E+00   0.00000000000000E+00
      3.42857513573904E-18   0.00000000000000E+00   0.00000000000000E+00   0.00000000000000E+00   0.00000000000000E+00
      2.00932340410764E-20  -1.18336567617911E-33   2.00932340410752E-20  -1.29216238707215E-17   7.98772691297934E-03
      7.98772672153468E-03   0.00000000000000E+00   0.00000000000000E+00   9.16671062781537E-10   4.94942604512804E-34
      9.16671062781537E-10   4.38299321622033E-18
      1.11555174190848E-02
      0.00000000000000E+00   2.14928853274115E-10   0.00000000000000E+00   0.00000000000000E+00  -1.04207385670339E-09
      6.55862939306566E-34  -1.04207385670339E-09   5.10938667781318E-18   0.00000000000000E+00   0.00000000000000E+00
      0.00000000000000E+00   0.00000000000000E+00   0.00000000000000E+00   0.00000000000000E+00   0.00000000000000E+00
      3.40956505112158E-18   0.00000000000000E+00   0.00000000000000E+00   0.00000000000000E+00   0.00000000000000E+00
      3.74624640148166E-20  -1.14934415873197E-33   3.74624640148155E-20  -1.29211204690216E-17   9.59374498041296E-03
      9.59374476275973E-03   0.00000000000000E+00   0.00000000000000E+00   1.04207385666593E-09   4.93481219425409E-34
      1.04207385666593E-09   4.40216874008689E-18
      1.31972768226439E-02
      0.00000000000000E+00   2.39623026662095E-10   0.00000000000000E+00   0.00000000000000E+00  -1.16170295480833E-09
      6.73876332167375E-34  -1.16170295480833E-09   5.10865563060337E-18   0.00000000000000E+00   0.00000000000000E+00
      0.00000000000000E+00   0.00000000000000E+00   0.00000000000000E+00   0.00000000000000E+00   0.00000000000000E+00
      3.38878845913894E-18   0.00000000000000E+00   0.00000000000000E+00   0.00000000000000E+00   0.00000000000000E+00
     -2.03044013005509E-20  -1.11197755147234E-33  -2.03044013005520E-20  -1.29205894113056E-17   1.13496580674737E-02
      1.13496578248143E-02   0.00000000000000E+00   0.00000000000000E+00   1.16170295482864E-09   4.38101219304969E-34
      1.16170295482864E-09   4.42314532156332E-18
      1.54296004372017E-02
      0.00000000000000E+00   2.62825466768989E-10   0.00000000000000E+00   0.00000000000000E+00  -1.27409011762699E-09
      6.93560867938054E-34  -1.27409011762699E-09   5.10785660503738E-18   0.00000000000000E+00   0.00000000000000E+00
      0.00000000000000E+00   0.00000000000000E+00   0.00000000000000E+00   0.00000000000000E+00   0.00000000000000E+00
      3.36608173834966E-18   0.00000000000000E+00   0.00000000000000E+00   0.00000000000000E+00   0.00000000000000E+00
     -3.71215736011065E-22  -1.11754042347478E-33  -3.71215736012182E-22  -1.29200313521511E-17   1.32694563759935E-02
      1.32694561098385E-02   0.00000000000000E+00   0.00000000000000E+00   1.27409011762736E-09   4.23979555536730E-34
      1.27409011762736E-09   4.44609300876404E-18
      1.78702742557850E-02
      0.00000000000000E+00   2.84256538068625E-10   0.00000000000000E+00   0.00000000000000E+00  -1.37789110411018E-09
      7.01196797186149E-34  -1.37789110411018E-09   5.10698329441181E-18   0.00000000000000E+00   0.00000000000000E+00
      0.00000000000000E+00   0.00000000000000E+00   0.00000000000000E+00   0.00000000000000E+00   0.00000000000000E+00
      3.34126616945630E-18   0.00000000000000E+00   0.00000000000000E+00   0.00000000000000E+00   0.00000000000000E+00
     -3.33274729498219E-20  -1.10237749420776E-33  -3.33274729498230E-20  -1.29194474917369E-17   1.53684358599751E-02
      1.53684355721186E-02   0.00000000000000E+00   0.00000000000000E+00   1.37789110414351E-09   4.01180697021609E-34
      1.37789110414351E-09   4.47119802786879E-18
      2.05387442974361E-02
      0.00000000000000E+00   3.03678987723521E-10   0.00000000000000E+00   0.00000000000000E+00  -1.47197085424753E-09
      6.51764459683625E-34  -1.47197085424753E-09   5.10602880767093E-18   0.00000000000000E+00   0.00000000000000E+00
      0.00000000000000E+00   0.00000000000000E+00   0.00000000000000E+00   0.00000000000000E+00   0.00000000000000E+00
      3.31414654040754E-18   0.00000000000000E+00   0.00000000000000E+00   0.00000000000000E+00   0.00000000000000E+00
     -3.84286799163946E-20  -9.94185368741733E-34  -3.84286799163956E-20  -1.29188396806584E-17   1.76633200957950E-02
      1.76633197882716E-02   0.00000000000000E+00   0.00000000000000E+00   1.47197085428596E-09   3.42420909058108E-34
      1.47197085428596E-09   4.49866433257997E-18
      2.34562715429746E-02
      0.00000000000000E+00   3.20916728240032E-10   0.00000000000000E+00   0.00000000000000E+00  -1.55549433679155E-09
      6.97974321542771E-34  -1.55549433679155E-09   5.10498561498518E-18   0.00000000000000E+00   0.00000000000000E+00
      0.00000000000000E+00   0.00000000000000E+00   0.00000000000000E+00   0.00000000000000E+00   0.00000000000000E+00
      3.28450962145854E-18   0.00000000000000E+00   0.00000000000000E+00   0.00000000000000E+00   0.00000000000000E+00
     -8.14523922612854E-21  -1.04222728294486E-33  -8.14523922612959E-21  -1.29182105383842E-17   2.01723935269581E-02
      2.01723932019810E-02   0.00000000000000E+00   0.00000000000000E+00   1.55549433679969E-09   3.44252961402093E-34
      1.55549433679969E-09   4.52871530194045E-18
      2.66461013314300E-02
      0.00000000000000E+00   3.35874112671387E-10   0.00000000000000E+00   0.00000000000000E+00  -1.62802009809579E-09
      6.35065464622394E-34  -1.62802009809579E-09   5.10384548811342E-18   0.00000000000000E+00   0.00000000000000E+00
      0.00000000000000E+00   0.00000000000000E+00   0.00000000000000E+00   0.00000000000000E+00   0.00000000000000E+00
      3.25212249568705E-18   0.00000000000000E+00   0.00000000000000E+00   0.00000000000000E+00   0.00000000000000E+00
     -3.27963766209161E-20  -9.42274199398594E-34  -3.27963766209171E-20  -1.29175635830196E-17   2.29156471450298E-02
      2.29156468049092E-02   0.00000000000000E+00   0.00000000000000E+00   1.62802009812859E-09   3.07208734776199E-34
      1.62802009812859E-09   4.56159559921911E-18
      3.01336485668079E-02
      0.00000000000000E+00   3.48554640058238E-10   0.00000000000000E+00   0.00000000000000E+00  -1.68959014720701E-09
      6.77708370374559E-34  -1.68959014720701E-09   5.10259943499671E-18   0.00000000000000E+00   0.00000000000000E+00
      0.00000000000000E+00   0.00000000000000E+00   0.00000000000000E+00   0.00000000000000E+00   0.00000000000000E+00
      3.21673072721686E-18   0.00000000000000E+00   0.00000000000000E+00   0.00000000000000E+00   0.00000000000000E+00
     -4.09929507355217E-20  -9.41813211405510E-34  -4.09929507355226E-20  -1.29169033666811E-17   2.59149377674548E-02
      2.59149374144982E-02   0.00000000000000E+00   0.00000000000000E+00   1.68959014724801E-09   2.64104841030951E-34
      1.68959014724801E-09   4.59757320446756E-18
      3.39467002108211E-02
      0.00000000000000E+00   3.59075952942740E-10   0.00000000000000E+00   0.00000000000000E+00  -1.74080171747074E-09
      6.67524805355930E-34  -1.74080171747074E-09   5.10123762814107E-18   0.00000000000000E+00   0.00000000000000E+00
      0.00000000000000E+00   0.00000000000000E+00   0.00000000000000E+00   0.00000000000000E+00   0.00000000000000E+00
      3.17805635291016E-18   0.00000000000000E+00   0.00000000000000E+00   0.00000000000000E+00   0.00000000000000E+00
     -2.51144140903865E-20  -9.20267817044761E-34  -2.51144140903875E-20  -1.29162356192280E-17   2.91941621813061E-02
      2.91941618177031E-02   0.00000000000000E+00   0.00000000000000E+00   1.74080171749586E-09   2.52743011688831E-34
      1.74080171749586E-09   4.63694163817676E-18
      3.81156366749421E-02
      0.00000000000000E+00   3.67676506271813E-10   0.00000000000000E+00   0.00000000000000E+00  -1.78283775968590E-09
      6.80423244354965E-34  -1.78283775968590E-09   5.09974932619575E-18   0.00000000000000E+00   0.00000000000000E+00
      0.00000000000000E+00   0.00000000000000E+00   0.00000000000000E+00   0.00000000000000E+00   0.00000000000000E+00
      3.13579568151170E-18   0.00000000000000E+00   0.00000000000000E+00   0.00000000000000E+00   0.00000000000000E+00
     -2.19778904461611E-20  -8.91566814135496E-34  -2.19778904461620E-20  -1.29155673992028E-17   3.27794475404502E-02
      3.27794471681506E-02   0.00000000000000E+00   0.00000000000000E+00   1.78283775970788E-09   2.11143569780531E-34
      1.78283775970788E-09   4.68002239149533E-18
      4.26736738757145E-02
      0.00000000000000E+00   3.74709342274643E-10   0.00000000000000E+00   0.00000000000000E+00  -1.81743450746201E-09
      6.77997464849358E-34  -1.81743450746201E-09   5.09812278818902E-18   0.00000000000000E+00   0.00000000000000E+00
      0.00000000000000E+00   0.00000000000000E+00   0.00000000000000E+00   0.00000000000000E+00   0.00000000000000E+00
      3.08961687500463E-18   0.00000000000000E+00   0.00000000000000E+00   0.00000000000000E+00   0.00000000000000E+00
      1.53817493030311E-21  -8.57704520985947E-34   1.53817493030225E-21  -1.29149072422459E-17   3.66993595331145E-02
      3.66993591537119E-02   0.00000000000000E+00   0.00000000000000E+00   1.81743450746047E-09   1.79707056136589E-34
      1.81743450746047E-09   4.72716757905231E-18
      4.76571278818923E-02
      0.00000000000000E+00   3.80618119799060E-10   0.00000000000000E+00   0.00000000000000E+00  -1.84676075442954E-09
      6.57985210924995E-34  -1.84676075442954E-09   5.09634517988268E-18   0.00000000000000E+00   0.00000000000000E+00
      0.00000000000000E+00   0.00000000000000E+00   0.00000000000000E+00   0.00000000000000E+00   0.00000000000000E+00
      3.03915729351879E-18   0.00000000000000E+00   0.00000000000000E+00   0.00000000000000E+00   0.00000000000000E+00
      2.43488236057742E-20  -8.26352784583176E-34   2.43488236057734E-20  -1.29142653068153E-17   4.09851299784274E-02
      4.09851295930693E-02   0.00000000000000E+00   0.00000000000000E+00   1.84676075440519E-09   1.68367573658181E-34
      1.84676075440519E-09   4.77876283341383E-18
      5.31057042619801E-02
      0.00000000000000E+00   3.85893692070469E-10   0.00000000000000E+00   0.00000000000000E+00  -1.87320713967737E-09
      6.46834775671513E-34  -1.87320713967737E-09   5.09440247185500E-18   0.00000000000000E+00   0.00000000000000E+00
      0.00000000000000E+00   0.00000000000000E+00   0.00000000000000E+00   0.00000000000000E+00   0.00000000000000E+00
      2.98402058812921E-18   0.00000000000000E+00   0.00000000000000E+00   0.00000000000000E+00   0.00000000000000E+00
      2.94868328098293E-21  -7.82787329080464E-34   2.94868328098215E-21  -1.29136535199769E-17   4.56709056653029E-02
      4.56709052746428E-02   0.00000000000000E+00   0.00000000000000E+00   1.87320713967442E-09   1.35952553408951E-34
      1.87320713967442E-09   4.83523045999271E-18
      5.90628144375427E-02
      0.00000000000000E+00   3.91018040762888E-10   0.00000000000000E+00   0.00000000000000E+00  -1.89911797659278E-09
      6.58684717113727E-34  -1.89911797659278E-09   5.09227932925019E-18   0.00000000000000E+00   0.00000000000000E+00
      0.00000000000000E+00   0.00000000000000E+00   0.00000000000000E+00   0.00000000000000E+00   0.00000000000000E+00
      2.92377353021137E-18   0.00000000000000E+00   0.00000000000000E+00   0.00000000000000E+00   0.00000000000000E+00
      2.49292223594932E-20  -7.74253192732941E-34   2.49292223594924E-20  -1.29130857357805E-17   5.07940204162867E-02
      5.07940200204934E-02   0.00000000000000E+00   0.00000000000000E+00   1.89911797656785E-09   1.15568475619214E-34
      1.89911797656785E-09   4.89703287631894E-18
      6.55362074949873E-02
      0.00000000000000E+00   3.96358821984929E-10   0.00000000000000E+00   0.00000000000000E+00  -1.92626658922648E-09
      6.45859930242477E-34  -1.92626658922648E-09   5.08997313859951E-18   0.00000000000000E+00   0.00000000000000E+00
      0.00000000000000E+00   0.00000000000000E+00   0.00000000000000E+00   0.00000000000000E+00   0.00000000000000E+00
      2.85834384698763E-18   0.00000000000000E+00   0.00000000000000E+00   0.00000000000000E+00   0.00000000000000E+00
     -3.12876813437182E-20  -7.41671134506848E-34  -3.12876813437189E-20  -1.29125806565265E-17   5.63611384456891E-02
      5.63611380445614E-02   0.00000000000000E+00   0.00000000000000E+00   1.92626658925777E-09   9.58112042643705E-35
      1.92626658925777E-09   4.96426367093938E-18
      7.25706279507439E-02
      0.00000000000000E+00   4.02166716599770E-10   0.00000000000000E+00   0.00000000000000E+00  -1.95585021799469E-09
      6.54240633491787E-34  -1.95585021799469E-09   5.08746811411594E-18   0.00000000000000E+00   0.00000000000000E+00
      0.00000000000000E+00   0.00000000000000E+00   0.00000000000000E+00   0.00000000000000E+00   0.00000000000000E+00
      2.78728535775070E-18   0.00000000000000E+00   0.00000000000000E+00   0.00000000000000E+00   0.00000000000000E+00
      8.45254844648419E-22  -7.36540312136662E-34   8.45254844647682E-22  -1.29121547685270E-17   6.24107400376398E-02
      6.24107396307224E-02   0.00000000000000E+00   0.00000000000000E+00   1.95585021799384E-09   8.22996786448744E-35
      1.95585021799384E-09   5.03740129666033E-18
      8.02146981793327E-02
      0.00000000000000E+00   4.08571868600032E-10   0.00000000000000E+00   0.00000000000000E+00  -1.98849515363752E-09
      7.19486834442085E-34  -1.98849515363752E-09   5.08474710854079E-18   0.00000000000000E+00   0.00000000000000E+00
      0.00000000000000E+00   0.00000000000000E+00   0.00000000000000E+00   0.00000000000000E+00   0.00000000000000E+00
      2.71011323477193E-18   0.00000000000000E+00   0.00000000000000E+00   0.00000000000000E+00   0.00000000000000E+00
      1.11653766426640E-20  -7.82294613766394E-34   1.11653766426633E-20  -1.29118264615859E-17   6.89846404342261E-02
      6.89846400209335E-02   0.00000000000000E+00   0.00000000000000E+00   1.98849515362635E-09   6.28077793243094E-35
      1.98849515362635E-09   5.11696611827327E-18
      8.85212544943992E-02
      0.00000000000000E+00   4.15655071281405E-10   0.00000000000000E+00   0.00000000000000E+00  -2.02461436978873E-09
      6.51821538223635E-34  -2.02461436978873E-09   5.08179149542258E-18   0.00000000000000E+00   0.00000000000000E+00
      0.00000000000000E+00   0.00000000000000E+00   0.00000000000000E+00   0.00000000000000E+00   0.00000000000000E+00
      2.62630065512320E-18   0.00000000000000E+00   0.00000000000000E+00   0.00000000000000E+00   0.00000000000000E+00
      1.74334927956355E-20  -7.01943135917171E-34   1.74334927956348E-20  -1.29116161307085E-17   7.61282788651833E-02
      7.61282784448483E-02   0.00000000000000E+00   0.00000000000000E+00   2.02461436977130E-09   5.01215976935361E-35
      2.02461436977130E-09   5.20352398016264E-18
      9.75477123567714E-02
      0.00000000000000E+00   4.23457678346403E-10   0.00000000000000E+00   0.00000000000000E+00  -2.06443059526977E-09
      6.80279242436979E-34  -2.06443059526977E-09   5.07858104833473E-18   0.00000000000000E+00   0.00000000000000E+00
      0.00000000000000E+00   0.00000000000000E+00   0.00000000000000E+00   0.00000000000000E+00   0.00000000000000E+00
      2.53527524006462E-18   0.00000000000000E+00   0.00000000000000E+00   0.00000000000000E+00   0.00000000000000E+00
     -2.90512658451116E-20  -7.19166541107703E-34  -2.90512658451123E-20  -1.29115463500080E-17   8.38910326268234E-02
      8.38910321987347E-02   0.00000000000000E+00   0.00000000000000E+00   2.06443059529882E-09   3.88872986707237E-35
      2.06443059529882E-09   5.29769006160861E-18
      1.07356463233883E-01
      0.00000000000000E+00   4.32004200960868E-10   0.00000000000000E+00   0.00000000000000E+00  -2.10809236956282E-09
      6.69582916177370E-34  -2.10809236956282E-09   5.07509380046998E-18   0.00000000000000E+00   0.00000000000000E+00
      0.00000000000000E+00   0.00000000000000E+00   0.00000000000000E+00   0.00000000000000E+00   0.00000000000000E+00
      2.43641507320016E-18   0.00000000000000E+00   0.00000000000000E+00   0.00000000000000E+00   0.00000000000000E+00
      1.61200515518630E-20  -6.97617307768788E-34   1.61200515518623E-20  -1.29116418989525E-17   9.23265583811390E-02
      9.23265579445615E-02   0.00000000000000E+00   0.00000000000000E+00   2.10809236954670E-09   2.80343915914172E-35
      2.10809236954670E-09   5.40013302528234E-18
      1.17356463233883E-01
      0.00000000000000E+00   4.40781227043810E-10   0.00000000000000E+00   0.00000000000000E+00  -2.15299914657426E-09
      6.61932473797379E-34  -2.15299914657426E-09   5.07153997491230E-18   0.00000000000000E+00   0.00000000000000E+00
      0.00000000000000E+00   0.00000000000000E+00   0.00000000000000E+00   0.00000000000000E+00   0.00000000000000E+00
      2.33567937760902E-18   0.00000000000000E+00   0.00000000000000E+00   0.00000000000000E+00   0.00000000000000E+00
     -1.71415181385635E-20  -6.82924009878069E-34  -1.71415181385642E-20  -1.29119065582447E-17   1.00926558381139E-01
      1.00926557935856E-01   0.00000000000000E+00   0.00000000000000E+00   2.15299914659140E-09   2.09915360806900E-35
      2.15299914659140E-09   5.50468720572332E-18
      1.27356463233883E-01
      0.00000000000000E+00   4.49645675499223E-10   0.00000000000000E+00   0.00000000000000E+00  -2.19842270661233E-09
      7.02385643776399E-34  -2.19842270661233E-09   5.06798745811036E-18   0.00000000000000E+00   0.00000000000000E+00
      0.00000000000000E+00   0.00000000000000E+00   0.00000000000000E+00   0.00000000000000E+00   0.00000000000000E+00
      2.23499070210584E-18   0.00000000000000E+00   0.00000000000000E+00   0.00000000000000E+00   0.00000000000000E+00
     -4.15822776841924E-22  -7.18624526821638E-34  -4.15822776842642E-22  -1.29123245890430E-17   1.09526558381139E-01
      1.09526557927081E-01   0.00000000000000E+00   0.00000000000000E+00   2.19842270661274E-09   1.62388830452390E-35
      2.19842270661274E-09   5.60934642882677E-18
      1.37356463233883E-01
      0.00000000000000E+00   4.58619706105119E-10   0.00000000000000E+00   0.00000000000000E+00  -2.24447069682257E-09
      6.36621417169925E-34  -2.24447069682257E-09   5.06443614674071E-18   0.00000000000000E+00   0.00000000000000E+00
      0.00000000000000E+00   0.00000000000000E+00   0.00000000000000E+00   0.00000000000000E+00   0.00000000000000E+00
      2.13434426437906E-18   0.00000000000000E+00   0.00000000000000E+00   0.00000000000000E+00   0.00000000000000E+00
     -5.89023150718850E-21  -6.48635921991421E-34  -5.89023150718915E-21  -1.29128821028208E-17   1.18126558381139E-01
      1.18126557918210E-01   0.00000000000000E+00   0.00000000000000E+00   2.24447069682846E-09   1.20145048214957E-35
      2.24447069682846E-09   5.71410169170103E-18
      1.47356463233883E-01
      0.00000000000000E+00   4.67715688640750E-10   0.00000000000000E+00   0.00000000000000E+00  -2.29120246304419E-09
      6.57652984337752E-34  -2.29120246304419E-09   5.06088595502560E-18   0.00000000000000E+00   0.00000000000000E+00
      0.00000000000000E+00   0.00000000000000E+00   0.00000000000000E+00   0.00000000000000E+00   0.00000000000000E+00
      2.03373596645219E-18   0.00000000000000E+00   0.00000000000000E+00   0.00000000000000E+00   0.00000000000000E+00
     -1.94021338855389E-21  -6.66377357599365E-34  -1.94021338855455E-21  -1.29135667511398E-17   1.26726558381139E-01
      1.26726557909217E-01   0.00000000000000E+00   0.00000000000000E+00   2.29120246304612E-09   8.72437326161413E-36
      2.29120246304612E-09   5.81894482966199E-18
      1.57356463233883E-01
      0.00000000000000E+00   4.76937920301918E-10   0.00000000000000E+00   0.00000000000000E+00  -2.33863804931335E-09
      6.35169058442342E-34  -2.33863804931335E-09   5.05733680757245E-18   0.00000000000000E+00   0.00000000000000E+00
      0.00000000000000E+00   0.00000000000000E+00   0.00000000000000E+00   0.00000000000000E+00   0.00000000000000E+00
      1.93316224382247E-18   0.00000000000000E+00   0.00000000000000E+00   0.00000000000000E+00   0.00000000000000E+00
     -4.80555458614719E-20  -6.41963522691588E-34  -4.80555458614725E-20  -1.29143674685431E-17   1.35326558381139E-01
      1.35326557900089E-01   0.00000000000000E+00   0.00000000000000E+00   2.33863804936141E-09   6.79446424924587E-36
      2.33863804936141E-09   5.92386841714822E-18
      1.67356463233883E-01
      0.00000000000000E+00   4.86286399463054E-10   0.00000000000000E+00   0.00000000000000E+00  -2.38677671275857E-09
      6.67367107083709E-34  -2.38677671275857E-09   5.05378863603758E-18   0.00000000000000E+00   0.00000000000000E+00
      0.00000000000000E+00   0.00000000000000E+00   0.00000000000000E+00   0.00000000000000E+00   0.00000000000000E+00
      1.83261995116653E-18   0.00000000000000E+00   0.00000000000000E+00   0.00000000000000E+00   0.00000000000000E+00
      8.00992501082148E-21  -6.72251859493054E-34   8.00992501082081E-21  -1.29152742728389E-17   1.43926558381139E-01
      1.43926557890825E-01   0.00000000000000E+00   0.00000000000000E+00   2.38677671275056E-09   4.88475240934433E-36
      2.38677671275056E-09   6.02886568563483E-18
      1.77356463233883E-01
      0.00000000000000E+00   4.95759624909734E-10   0.00000000000000E+00   0.00000000000000E+00  -2.43561099293327E-09
      6.81975773548868E-34  -2.43561099293327E-09   5.05024137809937E-18   0.00000000000000E+00   0.00000000000000E+00
      0.00000000000000E+00   0.00000000000000E+00   0.00000000000000E+00   0.00000000000000E+00   0.00000000000000E+00
      1.73210628961226E-18   0.00000000000000E+00   0.00000000000000E+00   0.00000000000000E+00   0.00000000000000E+00
     -1.43463840939833E-20  -6.85819409874978E-34  -1.43463840939839E-20  -1.29162781244794E-17   1.52526558381139E-01
      1.52526557881432E-01   0.00000000000000E+00   0.00000000000000E+00   2.43561099294761E-09   3.84363632611047E-36
      2.43561099294761E-09   6.13393045676780E-18
      1.87356463233883E-01
      0.00000000000000E+00   5.05356164514287E-10   0.00000000000000E+00   0.00000000000000E+00  -2.48513467161405E-09