DF-ISE text

Info {
  version   = 1.0
  type      = xyplot
  datasets  = [
    "time"
    "source OuterVoltage" "source InnerVoltage" "source QuasiFermiPotential" "source DisplacementCurrent" "source eCurrent"
    "source hCurrent" "source TotalCurrent" "source Charge" "gate OuterVoltage" "gate InnerVoltage"
    "gate QuasiFermiPotential" "gate DisplacementCurrent" "gate eCurrent" "gate hCurrent" "gate TotalCurrent"
    "gate Charge" "substrate OuterVoltage" "substrate InnerVoltage" "substrate QuasiFermiPotential" "substrate DisplacementCurrent"
    "substrate eCurrent" "substrate hCurrent" "substrate TotalCurrent" "substrate Charge" "drain OuterVoltage"
    "drain InnerVoltage" "drain QuasiFermiPotential" "drain DisplacementCurrent" "drain eCurrent" "drain hCurrent"
    "drain TotalCurrent" "drain Charge" ]
  functions = [
    Time
    OuterVoltage InnerVoltage QuasiFermiPotential DisplacementCurrent eCurrent
    hCurrent TotalCurrent Charge OuterVoltage InnerVoltage
    QuasiFermiPotential DisplacementCurrent eCurrent hCurrent TotalCurrent
    Charge OuterVoltage InnerVoltage QuasiFermiPotential DisplacementCurrent
    eCurrent hCurrent TotalCurrent Charge OuterVoltage
    InnerVoltage QuasiFermiPotential DisplacementCurrent eCurrent hCurrent
    TotalCurrent Charge ]
}

Data {
      0.00000000000000E+00
      0.00000000000000E+00   0.00000000000000E+00   0.00000000000000E+00   0.00000000000000E+00  -5.03817968046954E-21
     -8.32411995072436E-35  -5.03817968046962E-21   4.19427332936977E-18   0.00000000000000E+00   0.00000000000000E+00
      0.00000000000000E+00   0.00000000000000E+00   0.00000000000000E+00   0.00000000000000E+00   0.00000000000000E+00
      4.09119563558043E-18   0.00000000000000E+00   0.00000000000000E+00   0.00000000000000E+00   0.00000000000000E+00
      7.61037522047300E-21   2.00589461100736E-34   7.61037522047320E-21  -1.17655535470040E-17   0.00000000000000E+00
      0.00000000000000E+00   0.00000000000000E+00   0.00000000000000E+00  -2.57219554000346E-21  -1.17348261593493E-34
     -2.57219554000357E-21   3.48008458205380E-18
      0.00000000000000E+00
      0.00000000000000E+00   0.00000000000000E+00   0.00000000000000E+00   0.00000000000000E+00   5.18851889291394E-20
     -9.74376367993784E-35   5.18851889291393E-20   4.19288471999001E-18   0.00000000000000E+00   0.00000000000000E+00
      0.00000000000000E+00   0.00000000000000E+00   0.00000000000000E+00   0.00000000000000E+00   0.00000000000000E+00
      4.08530009689644E-18   0.00000000000000E+00   0.00000000000000E+00   0.00000000000000E+00   0.00000000000000E+00
     -4.79906108728632E-20   1.95158707922711E-34  -4.79906108728630E-20  -1.17571793716621E-17   0.00000000000000E+00
      0.00000000000000E+00   0.00000000000000E+00   0.00000000000000E+00  -3.89457805627640E-21  -9.77210711233332E-35
     -3.89457805627649E-21   3.47899455477568E-18
      1.00000000000000E-03
      0.00000000000000E+00   1.05835377298995E-12   0.00000000000000E+00   0.00000000000000E+00  -3.85760972086100E-12
     -1.07998324510840E-34  -3.85760972086100E-12   4.19287619091125E-18   0.00000000000000E+00   0.00000000000000E+00
      0.00000000000000E+00   0.00000000000000E+00   0.00000000000000E+00   0.00000000000000E+00   0.00000000000000E+00
      4.08478688818921E-18   0.00000000000000E+00   0.00000000000000E+00   0.00000000000000E+00   0.00000000000000E+00
      2.50980970373435E-20   1.98662219410635E-34   2.50980970373437E-20  -1.17571603706137E-17   5.00000000000000E-05
      4.99999989382055E-05   0.00000000000000E+00   0.00000000000000E+00   3.85760969576290E-12  -9.06638948997948E-35
      3.85760969576290E-12   3.47949729151322E-18
      2.09333333333333E-03
      0.00000000000000E+00   2.21211735849699E-12   0.00000000000000E+00   0.00000000000000E+00  -8.06298456210292E-12
     -8.73906807566932E-35  -8.06298456210292E-12   4.19286686587983E-18   0.00000000000000E+00   0.00000000000000E+00
      0.00000000000000E+00   0.00000000000000E+00   0.00000000000000E+00   0.00000000000000E+00   0.00000000000000E+00
      4.08422578734913E-18   0.00000000000000E+00   0.00000000000000E+00   0.00000000000000E+00   0.00000000000000E+00
      2.50093342894767E-20   1.67819822007816E-34   2.50093342894769E-20  -1.17571396142456E-17   1.04666666666667E-04
      1.04666664447358E-04   0.00000000000000E+00   0.00000000000000E+00   8.06298453709358E-12  -8.04291412511229E-35
      8.06298453709358E-12   3.48004696101660E-18
      3.29600000000000E-03
      0.00000000000000E+00   3.47705868599668E-12   0.00000000000000E+00   0.00000000000000E+00  -1.26736034325100E-11
     -7.22803495648212E-35  -1.26736034325100E-11   4.19285660845989E-18   0.00000000000000E+00   0.00000000000000E+00
      0.00000000000000E+00   0.00000000000000E+00   0.00000000000000E+00   0.00000000000000E+00   0.00000000000000E+00
      4.08360858528027E-18   0.00000000000000E+00   0.00000000000000E+00   0.00000000000000E+00   0.00000000000000E+00
      1.55915727817633E-20   1.73715510993250E-34   1.55915727817634E-20  -1.17571168040758E-17   1.64800000000000E-04
      1.64799996511623E-04   0.00000000000000E+00   0.00000000000000E+00   1.26736034169185E-11  -1.01435161428429E-34
      1.26736034169185E-11   3.48065161033560E-18
      4.61893333333333E-03
      0.00000000000000E+00   4.86335502708339E-12   0.00000000000000E+00   0.00000000000000E+00  -1.77264521788866E-11
     -7.45627499949866E-35  -1.77264521788866E-11   4.19284532543690E-18   0.00000000000000E+00   0.00000000000000E+00
      0.00000000000000E+00   0.00000000000000E+00   0.00000000000000E+00   0.00000000000000E+00   0.00000000000000E+00
      4.08292967370829E-18   0.00000000000000E+00   0.00000000000000E+00   0.00000000000000E+00   0.00000000000000E+00
     -9.62772829589606E-20   1.63516565039387E-34  -9.62772829589604E-20  -1.17570917392879E-17   2.30946666666667E-04
      2.30946661787513E-04   0.00000000000000E+00   0.00000000000000E+00   1.77264522751639E-11  -8.89538150444000E-35
      1.77264522751639E-11   3.48131674014276E-18
      6.07416000000000E-03
      0.00000000000000E+00   6.38194590219091E-12   0.00000000000000E+00   0.00000000000000E+00  -2.32615241957570E-11
     -8.07148285497682E-35  -2.32615241957570E-11   4.19283291427989E-18   0.00000000000000E+00   0.00000000000000E+00
      0.00000000000000E+00   0.00000000000000E+00   0.00000000000000E+00   0.00000000000000E+00   0.00000000000000E+00
      4.08218288391595E-18   0.00000000000000E+00   0.00000000000000E+00   0.00000000000000E+00   0.00000000000000E+00
      5.37848534819056E-20   1.72562317442513E-34   5.37848534819058E-20  -1.17570641999355E-17   3.03708000000000E-04
      3.03707993597320E-04   0.00000000000000E+00   0.00000000000000E+00   2.32615241419722E-11  -9.18474888927449E-35
      2.32615241419722E-11   3.48204840173971E-18
      7.67490933333333E-03
      0.00000000000000E+00   8.04466991050705E-12   0.00000000000000E+00   0.00000000000000E+00  -2.93219512419826E-11
     -1.00934333942374E-34  -2.93219512419826E-11   4.19281926221090E-18   0.00000000000000E+00   0.00000000000000E+00
      0.00000000000000E+00   0.00000000000000E+00   0.00000000000000E+00   0.00000000000000E+00   0.00000000000000E+00
      4.08136143077835E-18   0.00000000000000E+00   0.00000000000000E+00   0.00000000000000E+00   0.00000000000000E+00
     -7.50739646815541E-20   2.08542293013184E-34  -7.50739646815539E-20  -1.17570339452262E-17   3.83745466666667E-04
      3.83745458595847E-04   0.00000000000000E+00   0.00000000000000E+00   2.93219513170566E-11  -1.07607959070810E-34
      2.93219513170566E-11   3.48285325223694E-18
      9.43573360000000E-03
      0.00000000000000E+00   9.86429159612126E-12   0.00000000000000E+00   0.00000000000000E+00  -3.59541310203932E-11
     -9.74823288951286E-35  -3.59541310203932E-11   4.19280424518150E-18   0.00000000000000E+00   0.00000000000000E+00
      0.00000000000000E+00   0.00000000000000E+00   0.00000000000000E+00   0.00000000000000E+00   0.00000000000000E+00
      4.08045785121806E-18   0.00000000000000E+00   0.00000000000000E+00   0.00000000000000E+00   0.00000000000000E+00
     -2.56462891833964E-20   1.94812574351101E-34  -2.56462891833962E-20  -1.17570007116753E-17   4.71786680000000E-04
      4.71786670103661E-04   0.00000000000000E+00   0.00000000000000E+00   3.59541310460395E-11  -9.73302454559724E-35
      3.59541310460395E-11   3.48373861527573E-18
      1.13726402933333E-02
      0.00000000000000E+00   1.18544339702585E-11   0.00000000000000E+00   0.00000000000000E+00  -4.32078333863859E-11
     -9.87395738077765E-35  -4.32078333863859E-11   4.19278772674732E-18   0.00000000000000E+00   0.00000000000000E+00
      0.00000000000000E+00   0.00000000000000E+00   0.00000000000000E+00   0.00000000000000E+00   0.00000000000000E+00
      4.07946393652539E-18   0.00000000000000E+00   0.00000000000000E+00   0.00000000000000E+00   0.00000000000000E+00
      1.83909318249748E-19   1.72640277391705E-34   1.83909318249749E-19  -1.17569642111241E-17   5.68632014666667E-04
      5.68632002773715E-04   0.00000000000000E+00   0.00000000000000E+00   4.32078332024766E-11  -7.39007035839285E-35
      4.32078332024766E-11   3.48471254785139E-18
      1.35032376560000E-02
      0.00000000000000E+00   1.40297284618707E-11   0.00000000000000E+00   0.00000000000000E+00  -5.11362781700471E-11
     -8.96786720117231E-35  -5.11362781700471E-11   4.19276955683028E-18   0.00000000000000E+00   0.00000000000000E+00
      0.00000000000000E+00   0.00000000000000E+00   0.00000000000000E+00   0.00000000000000E+00   0.00000000000000E+00
      4.07837065793416E-18   0.00000000000000E+00   0.00000000000000E+00   0.00000000000000E+00   0.00000000000000E+00
      8.53277160007805E-21   1.85863806972884E-34   8.53277160007824E-21  -1.17569241286184E-17   6.75161882800000E-04
      6.75161868724700E-04   0.00000000000000E+00   0.00000000000000E+00   5.11362781615144E-11  -9.61851349611607E-35
      5.11362781615144E-11   3.48578391385397E-18
      1.58468947549333E-02
      0.00000000000000E+00   1.64057274464584E-11   0.00000000000000E+00   0.00000000000000E+00  -5.97961732081352E-11
     -8.37675197879501E-35  -5.97961732081352E-11   4.19274957035743E-18   0.00000000000000E+00   0.00000000000000E+00
      0.00000000000000E+00   0.00000000000000E+00   0.00000000000000E+00   0.00000000000000E+00   0.00000000000000E+00
      4.07716808478350E-18   0.00000000000000E+00   0.00000000000000E+00   0.00000000000000E+00   0.00000000000000E+00
      1.90635757568121E-19   1.61701783005443E-34   1.90635757568122E-19  -1.17568801201463E-17   7.92344737746667E-04
      7.92344721287657E-04   0.00000000000000E+00   0.00000000000000E+00   5.97961730174995E-11  -7.79342632174934E-35
      5.97961730174995E-11   3.48696246500535E-18
      1.84249175637600E-02
      0.00000000000000E+00   1.89989429833066E-11   0.00000000000000E+00   0.00000000000000E+00  -6.92476955126381E-11
     -9.91974121433781E-35  -6.92476955126381E-11   4.19272758576413E-18   0.00000000000000E+00   0.00000000000000E+00
      0.00000000000000E+00   0.00000000000000E+00   0.00000000000000E+00   0.00000000000000E+00   0.00000000000000E+00
      4.07584529452955E-18   0.00000000000000E+00   0.00000000000000E+00   0.00000000000000E+00   0.00000000000000E+00
      2.18339982864988E-19   2.13631918960334E-34   2.18339982864989E-19  -1.17568318102345E-17   9.21245878188001E-04
      9.21245859127361E-04   0.00000000000000E+00   0.00000000000000E+00   6.92476952942981E-11  -1.14434506816956E-34
      6.92476952942981E-11   3.48825892994084E-18
      2.12607426534693E-02
      0.00000000000000E+00   2.18268368187791E-11   0.00000000000000E+00   0.00000000000000E+00  -7.95544067358401E-11
     -1.02880627340567E-34  -7.95544067358401E-11   4.19270340334800E-18   0.00000000000000E+00   0.00000000000000E+00
      0.00000000000000E+00   0.00000000000000E+00   0.00000000000000E+00   0.00000000000000E+00   0.00000000000000E+00
      4.07439027379918E-18   0.00000000000000E+00   0.00000000000000E+00   0.00000000000000E+00   0.00000000000000E+00
      5.15417105751754E-19   2.04855957132792E-34   5.15417105751754E-19  -1.17567787894073E-17   1.06303713267347E-03
      1.06303711077576E-03   0.00000000000000E+00   0.00000000000000E+00   7.95544062204230E-11  -1.01975329792225E-34
      7.95544062204230E-11   3.48968511226012E-18
      2.43801502521496E-02
      0.00000000000000E+00   2.49077304159637E-11   0.00000000000000E+00   0.00000000000000E+00  -9.07830782938833E-11
     -7.07706594089104E-35  -9.07830782938833E-11   4.19267680345908E-18   0.00000000000000E+00   0.00000000000000E+00
      0.00000000000000E+00   0.00000000000000E+00   0.00000000000000E+00   0.00000000000000E+00   0.00000000000000E+00
      4.07278980959789E-18   0.00000000000000E+00   0.00000000000000E+00   0.00000000000000E+00   0.00000000000000E+00
      7.19903346372364E-19   1.80757561428408E-34   7.19903346372364E-19  -1.17567206115139E-17   1.21900751260748E-03
      1.21900748761888E-03   0.00000000000000E+00   0.00000000000000E+00   9.07830775739798E-11  -1.09986902019498E-34
      9.07830775739798E-11   3.49125399845700E-18
      2.78114986106979E-02
      0.00000000000000E+00   2.82607612190823E-11   0.00000000000000E+00   0.00000000000000E+00  -1.03003410181205E-10
     -9.58257570631079E-35  -1.03003410181205E-10   4.19264754450958E-18   0.00000000000000E+00   0.00000000000000E+00
      0.00000000000000E+00   0.00000000000000E+00   0.00000000000000E+00   0.00000000000000E+00   0.00000000000000E+00
      4.07102936969656E-18   0.00000000000000E+00   0.00000000000000E+00   0.00000000000000E+00   0.00000000000000E+00
      8.22511361373525E-19   1.99760943367962E-34   8.22511361373526E-19  -1.17566567909365E-17   1.39057493053490E-03
      1.39057490218239E-03   0.00000000000000E+00   0.00000000000000E+00   1.03003409358694E-10  -1.03935186304855E-34
      1.03003409358694E-10   3.49297987673038E-18
      3.15859818051010E-02
      0.00000000000000E+00   3.19057664417837E-11   0.00000000000000E+00   0.00000000000000E+00  -1.16287617934348E-10
     -7.29467657803245E-35  -1.16287617934348E-10   4.19261536078563E-18   0.00000000000000E+00   0.00000000000000E+00
      0.00000000000000E+00   0.00000000000000E+00   0.00000000000000E+00   0.00000000000000E+00   0.00000000000000E+00
      4.06909297112605E-18   0.00000000000000E+00   0.00000000000000E+00   0.00000000000000E+00   0.00000000000000E+00
      1.13971514065269E-18   1.81178083622301E-34   1.13971514065269E-18  -1.17565867996939E-17   1.57929909025505E-03
      1.57929905824572E-03   0.00000000000000E+00   0.00000000000000E+00   1.16287616794633E-10  -1.08231317841977E-34
      1.16287616794633E-10   3.49487846778216E-18
      3.57379133189445E-02
      0.00000000000000E+00   3.58631099991686E-11   0.00000000000000E+00   0.00000000000000E+00  -1.30709855726666E-10
     -8.21627289890922E-35  -1.30709855726666E-10   4.19257996004126E-18   0.00000000000000E+00   0.00000000000000E+00
      0.00000000000000E+00   0.00000000000000E+00   0.00000000000000E+00   0.00000000000000E+00   0.00000000000000E+00
      4.06696303560530E-18   0.00000000000000E+00   0.00000000000000E+00   0.00000000000000E+00   0.00000000000000E+00
      1.88483519574947E-18   1.72670822307769E-34   1.88483519574947E-18  -1.17565100644693E-17   1.78689566594722E-03
      1.78689562996773E-03   0.00000000000000E+00   0.00000000000000E+00   1.30709853841831E-10  -9.05080933186765E-35
      1.30709853841831E-10   3.49696706882273E-18
      4.03050379841723E-02
      0.00000000000000E+00   4.01534644546381E-11   0.00000000000000E+00   0.00000000000000E+00  -1.46345450094827E-10
     -1.02146722737195E-34  -1.46345450094827E-10   4.19254102085300E-18   0.00000000000000E+00   0.00000000000000E+00
      0.00000000000000E+00   0.00000000000000E+00   0.00000000000000E+00   0.00000000000000E+00   0.00000000000000E+00
      4.06462023061046E-18   0.00000000000000E+00   0.00000000000000E+00   0.00000000000000E+00   0.00000000000000E+00
      2.59018856247132E-18   1.87754200125368E-34   2.59018856247132E-18  -1.17564259635925E-17   2.01525189920861E-03
      2.01525185892485E-03   0.00000000000000E+00   0.00000000000000E+00   1.46345447504638E-10  -8.56074773881725E-35
      1.46345447504638E-10   3.49926471212896E-18
      4.53288751159228E-02
      0.00000000000000E+00   4.47975973403015E-11   0.00000000000000E+00   0.00000000000000E+00  -1.63269907742005E-10
     -8.93601358425214E-35  -1.63269907742005E-10   4.19249818971160E-18   0.00000000000000E+00   0.00000000000000E+00
      0.00000000000000E+00   0.00000000000000E+00   0.00000000000000E+00   0.00000000000000E+00   0.00000000000000E+00
      4.06204329466885E-18   0.00000000000000E+00   0.00000000000000E+00   0.00000000000000E+00   0.00000000000000E+00
      3.60021952920406E-18   1.74489323815799E-34   3.60021952920406E-18  -1.17563338240215E-17   2.26644375579614E-03
      2.26644371085319E-03   0.00000000000000E+00   0.00000000000000E+00   1.63269904141786E-10  -8.51291879732778E-35
      1.63269904141786E-10   3.50179233964102E-18
      5.08550959608485E-02
      0.00000000000000E+00   4.98159512953199E-11   0.00000000000000E+00   0.00000000000000E+00  -1.81557659585761E-10
     -8.15675167559012E-35  -1.81557659585761E-10   4.19245107782450E-18   0.00000000000000E+00   0.00000000000000E+00
      0.00000000000000E+00   0.00000000000000E+00   0.00000000000000E+00   0.00000000000000E+00   0.00000000000000E+00
      4.05920884532148E-18   0.00000000000000E+00   0.00000000000000E+00   0.00000000000000E+00   0.00000000000000E+00
      5.43382041708445E-18   1.64236520933645E-34   5.43382041708445E-18  -1.17562329183826E-17   2.54275479804242E-03
      2.54275474806486E-03   0.00000000000000E+00   0.00000000000000E+00   1.81557654151941E-10  -8.26690041777434E-35
      1.81557654151941E-10   3.50457299523663E-18
      5.69339388902666E-02
      0.00000000000000E+00   5.52282798109283E-11   0.00000000000000E+00   0.00000000000000E+00  -2.01280500524018E-10
     -8.29706601761236E-35  -2.01280500524018E-10   4.19239925760094E-18   0.00000000000000E+00   0.00000000000000E+00
      0.00000000000000E+00   0.00000000000000E+00   0.00000000000000E+00   0.00000000000000E+00   0.00000000000000E+00
      4.05609116804740E-18   0.00000000000000E+00   0.00000000000000E+00   0.00000000000000E+00   0.00000000000000E+00
      7.95361602271748E-18   1.75607988960971E-34   7.95361602271748E-18  -1.17561224621418E-17   2.84669694451333E-03
      2.84669688910591E-03   0.00000000000000E+00   0.00000000000000E+00   2.01280492570402E-10  -9.26373287848470E-35
      2.01280492570402E-10   3.50763203649342E-18
      6.36206661126266E-02
      0.00000000000000E+00   6.10530605487471E-11   0.00000000000000E+00   0.00000000000000E+00  -2.22505689360023E-10
     -6.34828042673617E-35  -2.22505689360023E-10   4.19234225878784E-18   0.00000000000000E+00   0.00000000000000E+00
      0.00000000000000E+00   0.00000000000000E+00   0.00000000000000E+00   0.00000000000000E+00   0.00000000000000E+00
      4.05266198427609E-18   0.00000000000000E+00   0.00000000000000E+00   0.00000000000000E+00   0.00000000000000E+00
      1.14504419416320E-17   1.53161438261973E-34   1.14504419416320E-17  -1.17560016110029E-17   3.18103330563133E-03
      3.18103324438026E-03   0.00000000000000E+00   0.00000000000000E+00   2.22505677909581E-10  -8.96786339946117E-35
      2.22505677909581E-10   3.51099736793899E-18
      7.09760660572226E-02
      0.00000000000000E+00   6.73069405235935E-11   0.00000000000000E+00   0.00000000000000E+00  -2.45293652397352E-10
     -8.53787134376551E-35  -2.45293652397352E-10   4.19227956422222E-18   0.00000000000000E+00   0.00000000000000E+00
      0.00000000000000E+00   0.00000000000000E+00   0.00000000000000E+00   0.00000000000000E+00   0.00000000000000E+00
      4.04889019643560E-18   0.00000000000000E+00   0.00000000000000E+00   0.00000000000000E+00   0.00000000000000E+00
      1.62039433980323E-17   1.59083251563952E-34   1.62039433980323E-17  -1.17558694586542E-17   3.54880330286113E-03
      3.54880323533593E-03   0.00000000000000E+00   0.00000000000000E+00   2.45293636193408E-10  -7.37045381262969E-35
      2.45293636193408E-10   3.51469969799638E-18
      7.90670059962782E-02
      0.00000000000000E+00   7.40039407405538E-11   0.00000000000000E+00   0.00000000000000E+00  -2.69695276385429E-10
     -8.15470182624165E-35  -2.69695276385429E-10   4.19221060516237E-18   0.00000000000000E+00   0.00000000000000E+00
      0.00000000000000E+00   0.00000000000000E+00   0.00000000000000E+00   0.00000000000000E+00   0.00000000000000E+00
      4.04474160777632E-18   0.00000000000000E+00   0.00000000000000E+00   0.00000000000000E+00   0.00000000000000E+00
      2.36693573884493E-17   1.65866003872001E-34   2.36693573884493E-17  -1.17557250350036E-17   3.95335029981391E-03
      3.95335022557002E-03   0.00000000000000E+00   0.00000000000000E+00   2.69695252716072E-10  -8.43189856095846E-35
      2.69695252716072E-10   3.51877282206494E-18
      8.79670399292394E-02
      0.00000000000000E+00   8.11546377146720E-11   0.00000000000000E+00   0.00000000000000E+00  -2.95748846098058E-10
     -9.40200593100279E-35  -2.95748846098058E-10   4.19213475615573E-18   0.00000000000000E+00   0.00000000000000E+00
      0.00000000000000E+00   0.00000000000000E+00   0.00000000000000E+00   0.00000000000000E+00   0.00000000000000E+00
      4.04017861447296E-18   0.00000000000000E+00   0.00000000000000E+00   0.00000000000000E+00   0.00000000000000E+00
      3.43841983204512E-17   1.85205988353322E-34   3.43841983204512E-17  -1.17555673050601E-17   4.39835199646197E-03
      4.39835191504422E-03   0.00000000000000E+00   0.00000000000000E+00   2.95748811713860E-10  -9.11859290432943E-35
      2.95748811713860E-10   3.52325393443140E-18
      9.77570772554967E-02
      0.00000000000000E+00   8.87651481804871E-11   0.00000000000000E+00   0.00000000000000E+00  -3.23476401186771E-10
     -9.06388121986719E-35  -3.23476401186771E-10   4.19205132939827E-18   0.00000000000000E+00   0.00000000000000E+00
      0.00000000000000E+00   0.00000000000000E+00   0.00000000000000E+00   0.00000000000000E+00   0.00000000000000E+00
      4.03515986732325E-18   0.00000000000000E+00   0.00000000000000E+00   0.00000000000000E+00   0.00000000000000E+00
      4.95085891791604E-17   1.59686984729345E-34   4.95085891791604E-17  -1.17553951687036E-17   4.88785386277484E-03
      4.88785377372193E-03   0.00000000000000E+00   0.00000000000000E+00   3.23476351678182E-10  -6.90481725306728E-35
      3.23476351678182E-10   3.52818397198207E-18
      1.07757077255497E-01
      0.00000000000000E+00   9.62699434793939E-11   0.00000000000000E+00   0.00000000000000E+00  -3.50817334691852E-10
     -8.03863798680614E-35  -3.50817334691852E-10   4.19196612108565E-18   0.00000000000000E+00   0.00000000000000E+00
      0.00000000000000E+00   0.00000000000000E+00   0.00000000000000E+00   0.00000000000000E+00   0.00000000000000E+00
      4.03003407054224E-18   0.00000000000000E+00   0.00000000000000E+00   0.00000000000000E+00   0.00000000000000E+00
      5.71726928110201E-17   1.55975431156263E-34   5.71726928110201E-17  -1.17552208094030E-17   5.38785386277483E-03
      5.38785376619282E-03   0.00000000000000E+00   0.00000000000000E+00   3.50817277519160E-10  -7.55890512882018E-35
      3.50817277519160E-10   3.53322061777507E-18
      1.17757077255497E-01
      0.00000000000000E+00   1.03510412748588E-10   0.00000000000000E+00   0.00000000000000E+00  -3.77193914043584E-10
     -7.89833832283646E-35  -3.77193914043584E-10   4.19188092044210E-18   0.00000000000000E+00   0.00000000000000E+00
      0.00000000000000E+00   0.00000000000000E+00   0.00000000000000E+00   0.00000000000000E+00   0.00000000000000E+00
      4.02490886033262E-18   0.00000000000000E+00   0.00000000000000E+00   0.00000000000000E+00   0.00000000000000E+00
      5.76570089136660E-17   1.48270581901070E-34   5.76570089136660E-17  -1.17550479248535E-17   5.88785386277483E-03
      5.88785375892891E-03   0.00000000000000E+00   0.00000000000000E+00   3.77193856386575E-10  -6.92871986727060E-35
      3.77193856386575E-10   3.53825814407874E-18
      1.27757077255497E-01
      0.00000000000000E+00   1.10494044770520E-10   0.00000000000000E+00   0.00000000000000E+00  -4.02633514446109E-10
     -7.31340509312336E-35  -4.02633514446109E-10   4.19179572739259E-18   0.00000000000000E+00   0.00000000000000E+00
      0.00000000000000E+00   0.00000000000000E+00   0.00000000000000E+00   0.00000000000000E+00   0.00000000000000E+00
      4.01978423181246E-18   0.00000000000000E+00   0.00000000000000E+00   0.00000000000000E+00   0.00000000000000E+00
      5.54165546891891E-17   1.58395757567654E-34   5.54165546891891E-17  -1.17548765054395E-17   6.38785386277483E-03
      6.38785375192264E-03   0.00000000000000E+00   0.00000000000000E+00   4.02633459029554E-10  -8.52617066364204E-35
      4.02633459029554E-10   3.54329654623446E-18
      1.37757077255497E-01
      0.00000000000000E+00   1.17228248353991E-10   0.00000000000000E+00   0.00000000000000E+00  -4.27163175962876E-10
     -9.18128265906532E-35  -4.27163175962876E-10   4.19171054186246E-18   0.00000000000000E+00   0.00000000000000E+00
      0.00000000000000E+00   0.00000000000000E+00   0.00000000000000E+00   0.00000000000000E+00   0.00000000000000E+00
      4.01466018019692E-18   0.00000000000000E+00   0.00000000000000E+00   0.00000000000000E+00   0.00000000000000E+00
      5.07923363510507E-17   1.65617618721528E-34   5.07923363510507E-17  -1.17547065416861E-17   6.88785386277483E-03
      6.88785374516662E-03   0.00000000000000E+00   0.00000000000000E+00   4.27163125170540E-10  -7.38047921308751E-35
      4.27163125170540E-10   3.54833581962671E-18
      1.47757077255497E-01
      0.00000000000000E+00   1.23720399818507E-10   0.00000000000000E+00   0.00000000000000E+00  -4.50809971670918E-10
     -8.55272925776065E-35  -4.50809971670918E-10   4.19162536377519E-18   0.00000000000000E+00   0.00000000000000E+00
      0.00000000000000E+00   0.00000000000000E+00   0.00000000000000E+00   0.00000000000000E+00   0.00000000000000E+00
      4.00953670057865E-18   0.00000000000000E+00   0.00000000000000E+00   0.00000000000000E+00   0.00000000000000E+00
      2.45509864890761E-17   1.66634516326470E-34   2.45509864890761E-17  -1.17545380239844E-17   7.38785386277483E-03
      7.38785373865339E-03   0.00000000000000E+00   0.00000000000000E+00   4.50809947119932E-10  -8.11072237488638E-35
      4.50809947119932E-10   3.55337595963059E-18
      1.57757077255497E-01
      0.00000000000000E+00   1.29977739903249E-10   0.00000000000000E+00   0.00000000000000E+00  -4.73600313210127E-10
     -9.00401691163080E-35  -4.73600313210127E-10   4.19154019305576E-18   0.00000000000000E+00   0.00000000000000E+00
      0.00000000000000E+00   0.00000000000000E+00   0.00000000000000E+00   0.00000000000000E+00   0.00000000000000E+00
      4.00441378821803E-18   0.00000000000000E+00   0.00000000000000E+00   0.00000000000000E+00   0.00000000000000E+00
      5.44104648215332E-17   1.57565302972611E-34   5.44104648215332E-17  -1.17543709429513E-17   7.88785386277484E-03
      7.88785373237574E-03   0.00000000000000E+00   0.00000000000000E+00   4.73600258799663E-10  -6.75251338563031E-35
      4.73600258799663E-10   3.55841696167749E-18
      1.67757077255497E-01
      0.00000000000000E+00   1.36007402507601E-10   0.00000000000000E+00   0.00000000000000E+00  -4.95560292157495E-10
     -9.41784051927667E-35  -4.95560292157495E-10   4.19145502962853E-18   0.00000000000000E+00   0.00000000000000E+00
      0.00000000000000E+00   0.00000000000000E+00   0.00000000000000E+00   0.00000000000000E+00   0.00000000000000E+00
      3.99929143835456E-18   0.00000000000000E+00   0.00000000000000E+00   0.00000000000000E+00   0.00000000000000E+00
      4.21500254604850E-17   1.75118376890028E-34   4.21500254604850E-17  -1.17542052891938E-17   8.38785386277484E-03
      8.38785372632648E-03   0.00000000000000E+00   0.00000000000000E+00   4.95560250007469E-10  -8.09399716972609E-35
      4.95560250007469E-10   3.56345882121074E-18
      1.77757077255497E-01
      0.00000000000000E+00   1.41816380952267E-10   0.00000000000000E+00   0.00000000000000E+00  -5.16715475565278E-10
     -9.93004339855425E-35  -5.16715475565278E-10   4.19136987341843E-18   0.00000000000000E+00   0.00000000000000E+00
      0.00000000000000E+00   0.00000000000000E+00   0.00000000000000E+00   0.00000000000000E+00   0.00000000000000E+00
      3.99416964629504E-18   0.00000000000000E+00   0.00000000000000E+00   0.00000000000000E+00   0.00000000000000E+00
      5.30418435218666E-17   1.68117832184137E-34   5.30418435218666E-17  -1.17540410534207E-17   8.88785386277484E-03
      8.88785372049860E-03   0.00000000000000E+00   0.00000000000000E+00   5.16715422523434E-10  -6.88173981985950E-35
      5.16715422523434E-10   3.56850153370720E-18
      1.87757077255497E-01
      0.00000000000000E+00   1.47411523605713E-10   0.00000000000000E+00   0.00000000000000E+00  -5.37090910282633E-10
     -8.79108463642365E-35  -5.37090910282633E-10   4.19128472435060E-18   0.00000000000000E+00   0.00000000000000E+00
      0.00000000000000E+00   0.00000000000000E+00   0.00000000000000E+00   0.00000000000000E+00   0.00000000000000E+00
      3.98904840739853E-18   0.00000000000000E+00   0.00000000000000E+00   0.00000000000000E+00   0.00000000000000E+00
      5.20547338357806E-17   1.74710360233774E-34   5.20547338357806E-17  -1.17538782264247E-17   9.38785386277484E-03
      9.38785371488523E-03   0.00000000000000E+00   0.00000000000000E+00   5.37090858227899E-10  -8.67995138695379E-35
      5.37090858227899E-10   3.57354509467555E-18
      1.97757077255497E-01
      0.00000000000000E+00   1.52799447662578E-10   0.00000000000000E+00   0.00000000000000E+00  -5.56711116057434E-10