DF-ISE text

Info {
  version   = 1.0
  type      = xyplot
  datasets  = [
    "time"
    "source OuterVoltage" "source InnerVoltage" "source QuasiFermiPotential" "source DisplacementCurrent" "source eCurrent"
    "source hCurrent" "source TotalCurrent" "source Charge" "gate OuterVoltage" "gate InnerVoltage"
    "gate QuasiFermiPotential" "gate DisplacementCurrent" "gate eCurrent" "gate hCurrent" "gate TotalCurrent"
    "gate Charge" "substrate OuterVoltage" "substrate InnerVoltage" "substrate QuasiFermiPotential" "substrate DisplacementCurrent"
    "substrate eCurrent" "substrate hCurrent" "substrate TotalCurrent" "substrate Charge" "drain OuterVoltage"
    "drain InnerVoltage" "drain QuasiFermiPotential" "drain DisplacementCurrent" "drain eCurrent" "drain hCurrent"
    "drain TotalCurrent" "drain Charge" ]
  functions = [
    Time
    OuterVoltage InnerVoltage QuasiFermiPotential DisplacementCurrent eCurrent
    hCurrent TotalCurrent Charge OuterVoltage InnerVoltage
    QuasiFermiPotential DisplacementCurrent eCurrent hCurrent TotalCurrent
    Charge OuterVoltage InnerVoltage QuasiFermiPotential DisplacementCurrent
    eCurrent hCurrent TotalCurrent Charge OuterVoltage
    InnerVoltage QuasiFermiPotential DisplacementCurrent eCurrent hCurrent
    TotalCurrent Charge ]
}

Data {
      0.00000000000000E+00
      0.00000000000000E+00   0.00000000000000E+00   0.00000000000000E+00   0.00000000000000E+00   2.74436561563683E-22
      5.74486952115780E-34   2.74436561564257E-22   4.53979349878390E-18   0.00000000000000E+00   0.00000000000000E+00
      0.00000000000000E+00   0.00000000000000E+00   0.00000000000000E+00   0.00000000000000E+00   0.00000000000000E+00
      3.27267712090995E-18   0.00000000000000E+00   0.00000000000000E+00   0.00000000000000E+00   0.00000000000000E+00
      1.43825443222195E-22  -1.13333187455584E-33   1.43825443221062E-22  -1.15606773710544E-17   0.00000000000000E+00
      0.00000000000000E+00   0.00000000000000E+00   0.00000000000000E+00  -4.18262004785877E-22   5.58844922440060E-34
     -4.18262004785318E-22   3.74820675136060E-18
      0.00000000000000E+00
      0.00000000000000E+00   0.00000000000000E+00   0.00000000000000E+00   0.00000000000000E+00  -1.08251232761139E-20
      5.79358401724273E-34  -1.08251232761133E-20   4.53826118475076E-18   0.00000000000000E+00   0.00000000000000E+00
      0.00000000000000E+00   0.00000000000000E+00   0.00000000000000E+00   0.00000000000000E+00   0.00000000000000E+00
      3.26721364415015E-18   0.00000000000000E+00   0.00000000000000E+00   0.00000000000000E+00   0.00000000000000E+00
      1.43208660893310E-20  -1.13513188170827E-33   1.43208660893299E-20  -1.15526070580288E-17   0.00000000000000E+00
      0.00000000000000E+00   0.00000000000000E+00   0.00000000000000E+00  -3.49574281321712E-21   5.55773479984000E-34
     -3.49574281321656E-21   3.74713222912792E-18
      1.00000000000000E-03
      0.00000000000000E+00   1.69612042752651E-12   0.00000000000000E+00   0.00000000000000E+00  -7.74453720092918E-12
      5.68943225725832E-34  -7.74453720092918E-12   4.53824596486572E-18   0.00000000000000E+00   0.00000000000000E+00
      0.00000000000000E+00   0.00000000000000E+00   0.00000000000000E+00   0.00000000000000E+00   0.00000000000000E+00
      3.26665727643576E-18   0.00000000000000E+00   0.00000000000000E+00   0.00000000000000E+00   0.00000000000000E+00
     -1.05113957445138E-19  -1.13055404341375E-33  -1.05113957445139E-19  -1.15525869845485E-17   5.00000000000000E-05
      4.99999982930129E-05   0.00000000000000E+00   0.00000000000000E+00   7.74453730604313E-12   5.61610817687918E-34
      7.74453730604313E-12   3.74768374324698E-18
      2.09333333333333E-03
      0.00000000000000E+00   3.54490427569593E-12   0.00000000000000E+00   0.00000000000000E+00  -1.61860453314225E-11
      5.63374547732098E-34  -1.61860453314225E-11   4.53822932467927E-18   0.00000000000000E+00   0.00000000000000E+00
      0.00000000000000E+00   0.00000000000000E+00   0.00000000000000E+00   0.00000000000000E+00   0.00000000000000E+00
      3.26604898982914E-18   0.00000000000000E+00   0.00000000000000E+00   0.00000000000000E+00   0.00000000000000E+00
     -6.18990132418656E-21  -1.09636468430254E-33  -6.18990132418766E-21  -1.15525650583735E-17   1.04666666666667E-04
      1.04666663099073E-04   0.00000000000000E+00   0.00000000000000E+00   1.61860453376124E-11   5.32990136570437E-34
      1.61860453376124E-11   3.74828674386508E-18
      3.29600000000000E-03
      0.00000000000000E+00   5.57145276753355E-12   0.00000000000000E+00   0.00000000000000E+00  -2.54393414289916E-11
      5.84404928575967E-34  -2.54393414289916E-11   4.53821102074224E-18   0.00000000000000E+00   0.00000000000000E+00
      0.00000000000000E+00   0.00000000000000E+00   0.00000000000000E+00   0.00000000000000E+00   0.00000000000000E+00
      3.26537988512299E-18   0.00000000000000E+00   0.00000000000000E+00   0.00000000000000E+00   0.00000000000000E+00
     -3.68453338495266E-21  -1.13767386388049E-33  -3.68453338495380E-21  -1.15525409646934E-17   1.64800000000000E-04
      1.64799994392863E-04   0.00000000000000E+00   0.00000000000000E+00   2.54393414326762E-11   5.53268935304520E-34
      2.54393414326762E-11   3.74895005882812E-18
      4.61893333333333E-03
      0.00000000000000E+00   7.79193846529294E-12   0.00000000000000E+00   0.00000000000000E+00  -3.55780063656740E-11
      5.74893210839854E-34  -3.55780063656740E-11   4.53819088673669E-18   0.00000000000000E+00   0.00000000000000E+00
      0.00000000000000E+00   0.00000000000000E+00   0.00000000000000E+00   0.00000000000000E+00   0.00000000000000E+00
      3.26464388271280E-18   0.00000000000000E+00   0.00000000000000E+00   0.00000000000000E+00   0.00000000000000E+00
      1.42622380555714E-20  -1.12669017028307E-33   1.42622380555702E-20  -1.15525144920059E-17   2.30946666666667E-04
      2.30946658824834E-04   0.00000000000000E+00   0.00000000000000E+00   3.55780063514118E-11   5.51796959443217E-34
      3.55780063514118E-11   3.74967972255636E-18
      6.07416000000000E-03
      0.00000000000000E+00   1.02237301666699E-11   0.00000000000000E+00   0.00000000000000E+00  -4.66815050982973E-11
      5.53721006287025E-34  -4.66815050982973E-11   4.53816873972463E-18   0.00000000000000E+00   0.00000000000000E+00
      0.00000000000000E+00   0.00000000000000E+00   0.00000000000000E+00   0.00000000000000E+00   0.00000000000000E+00
      3.26383429549274E-18   0.00000000000000E+00   0.00000000000000E+00   0.00000000000000E+00   0.00000000000000E+00
     -2.49833089099745E-21  -1.10461629757712E-33  -2.49833089099855E-21  -1.15524854087528E-17   3.03708000000000E-04
      3.03707989710801E-04   0.00000000000000E+00   0.00000000000000E+00   4.66815051007956E-11   5.50895291290099E-34
      4.66815051007956E-11   3.75048237353547E-18
      7.67490933333333E-03
      0.00000000000000E+00   1.28855889904992E-11   0.00000000000000E+00   0.00000000000000E+00  -5.88354105876421E-11
      5.87792343071026E-34  -5.88354105876421E-11   4.53814437848853E-18   0.00000000000000E+00   0.00000000000000E+00
      0.00000000000000E+00   0.00000000000000E+00   0.00000000000000E+00   0.00000000000000E+00   0.00000000000000E+00
      3.26294376819972E-18   0.00000000000000E+00   0.00000000000000E+00   0.00000000000000E+00   0.00000000000000E+00
     -1.67901924839920E-20  -1.14005497003174E-33  -1.67901924839931E-20  -1.15524534615404E-17   3.83745466666667E-04
      3.83745453698565E-04   0.00000000000000E+00   0.00000000000000E+00   5.88354106044323E-11   5.52262626960715E-34
      5.88354106044323E-11   3.75136531485214E-18
      9.43573360000000E-03
      0.00000000000000E+00   1.57976441477748E-11   0.00000000000000E+00   0.00000000000000E+00  -7.21316081937841E-11
      5.63850673166405E-34  -7.21316081937841E-11   4.53811758170643E-18   0.00000000000000E+00   0.00000000000000E+00
      0.00000000000000E+00   0.00000000000000E+00   0.00000000000000E+00   0.00000000000000E+00   0.00000000000000E+00
      3.26196421071287E-18   0.00000000000000E+00   0.00000000000000E+00   0.00000000000000E+00   0.00000000000000E+00
      3.52951124307372E-20  -1.11651070622835E-33   3.52951124307361E-20  -1.15524183732300E-17   4.71786680000000E-04
      4.71786664101198E-04   0.00000000000000E+00   0.00000000000000E+00   7.21316081584889E-11   5.52660033061946E-34
      7.21316081584889E-11   3.75233658081071E-18
      1.13726402933333E-02
      0.00000000000000E+00   1.89814402726798E-11   0.00000000000000E+00   0.00000000000000E+00  -8.66684565475938E-11
      5.79512125686273E-34  -8.66684565475938E-11   4.53808810594514E-18   0.00000000000000E+00   0.00000000000000E+00
      0.00000000000000E+00   0.00000000000000E+00   0.00000000000000E+00   0.00000000000000E+00   0.00000000000000E+00
      3.26088672470581E-18   0.00000000000000E+00   0.00000000000000E+00   0.00000000000000E+00   0.00000000000000E+00
      2.95821654911870E-20  -1.11823197833368E-33   2.95821654911859E-20  -1.15523798408945E-17   5.68632014666667E-04
      5.68631995563679E-04   0.00000000000000E+00   0.00000000000000E+00   8.66684565180117E-11   5.38719852647407E-34
      8.66684565180117E-11   3.75340501024361E-18
      1.35032376560000E-02
      0.00000000000000E+00   2.24599667227483E-11   0.00000000000000E+00   0.00000000000000E+00  -1.02550880238498E-10
      5.98867632201884E-34  -1.02550880238498E-10   4.53805568345324E-18   0.00000000000000E+00   0.00000000000000E+00
      0.00000000000000E+00   0.00000000000000E+00   0.00000000000000E+00   0.00000000000000E+00   0.00000000000000E+00
      3.25970152299147E-18   0.00000000000000E+00   0.00000000000000E+00   0.00000000000000E+00   0.00000000000000E+00
      4.41228856165542E-20  -1.17125751963024E-33   4.41228856165530E-20  -1.15523375336357E-17   6.75161882800000E-04
      6.75161860196214E-04   0.00000000000000E+00   0.00000000000000E+00   1.02550880194375E-10   5.72389887428357E-34
      1.02550880194375E-10   3.75458032719099E-18
      1.58468947549333E-02
      0.00000000000000E+00   2.62576491268959E-11   0.00000000000000E+00   0.00000000000000E+00  -1.19890366011947E-10
      5.79564152837517E-34  -1.19890366011947E-10   4.53802001973475E-18   0.00000000000000E+00   0.00000000000000E+00
      0.00000000000000E+00   0.00000000000000E+00   0.00000000000000E+00   0.00000000000000E+00   0.00000000000000E+00
      3.25839784083697E-18   0.00000000000000E+00   0.00000000000000E+00   0.00000000000000E+00   0.00000000000000E+00
      1.05958201583381E-19  -1.14280012704194E-33   1.05958201583379E-19  -1.15522910902681E-17   7.92344737746667E-04
      7.92344711320877E-04   0.00000000000000E+00   0.00000000000000E+00   1.19890365905989E-10   5.63235974204426E-34
      1.19890365905989E-10   3.75587322969635E-18
      1.84249175637600E-02
      0.00000000000000E+00   3.04003285372272E-11   0.00000000000000E+00   0.00000000000000E+00  -1.38804840576198E-10
      5.68011459971401E-34  -1.38804840576198E-10   4.53798079088064E-18   0.00000000000000E+00   0.00000000000000E+00
      0.00000000000000E+00   0.00000000000000E+00   0.00000000000000E+00   0.00000000000000E+00   0.00000000000000E+00
      3.25696383844874E-18   0.00000000000000E+00   0.00000000000000E+00   0.00000000000000E+00   0.00000000000000E+00
      1.31351387354008E-19  -1.10814783452017E-33   1.31351387354006E-19  -1.15522401168662E-17   9.21245878188001E-04
      9.21245847593003E-04   0.00000000000000E+00   0.00000000000000E+00   1.38804840444846E-10   5.40136374548765E-34
      1.38804840444846E-10   3.75729548753684E-18
      2.12607426534693E-02
      0.00000000000000E+00   3.49152095902890E-11   0.00000000000000E+00   0.00000000000000E+00  -1.59418402334867E-10
      5.61027079544429E-34  -1.59418402334867E-10   4.53793764063524E-18   0.00000000000000E+00   0.00000000000000E+00
      0.00000000000000E+00   0.00000000000000E+00   0.00000000000000E+00   0.00000000000000E+00   0.00000000000000E+00
      3.25538649375559E-18   0.00000000000000E+00   0.00000000000000E+00   0.00000000000000E+00   0.00000000000000E+00
      9.14940640459043E-18  -1.10338833330423E-33   9.14940640459043E-18  -1.15521841841853E-17   1.06303713267347E-03
      1.06303709753468E-03   0.00000000000000E+00   0.00000000000000E+00   1.59418393185461E-10   5.42361253759801E-34
      1.59418393185461E-10   3.75886004979453E-18
      2.43801502521496E-02
      0.00000000000000E+00   3.98307072446864E-11   0.00000000000000E+00   0.00000000000000E+00  -1.81860802287990E-10
      5.89969876697064E-34  -1.81860802287990E-10   4.53789017717058E-18   0.00000000000000E+00   0.00000000000000E+00
      0.00000000000000E+00   0.00000000000000E+00   0.00000000000000E+00   0.00000000000000E+00   0.00000000000000E+00
      3.25365148452941E-18   0.00000000000000E+00   0.00000000000000E+00   0.00000000000000E+00   0.00000000000000E+00
      3.43966325331944E-19  -1.11260298903563E-33   3.43966325331943E-19  -1.15521228249666E-17   1.21900751260748E-03
      1.21900747252172E-03   0.00000000000000E+00   0.00000000000000E+00   1.81860801944023E-10   5.22633112338564E-34
      1.81860801944023E-10   3.76058116326657E-18
      2.78114986106979E-02
      0.00000000000000E+00   4.51763797287902E-11   0.00000000000000E+00   0.00000000000000E+00  -2.06266846746229E-10
      6.04938332963569E-34  -2.06266846746229E-10   4.53783796953989E-18   0.00000000000000E+00   0.00000000000000E+00
      0.00000000000000E+00   0.00000000000000E+00   0.00000000000000E+00   0.00000000000000E+00   0.00000000000000E+00
      3.25174305878577E-18   0.00000000000000E+00   0.00000000000000E+00   0.00000000000000E+00   0.00000000000000E+00
      1.76291923402292E-17  -1.12829468311403E-33   1.76291923402292E-17  -1.15520555311391E-17   1.39057493053490E-03
      1.39057488506922E-03   0.00000000000000E+00   0.00000000000000E+00   2.06266829117036E-10   5.23356350150462E-34
      2.06266829117036E-10   3.76247450281346E-18
      3.15859818051010E-02
      0.00000000000000E+00   5.09826383564442E-11   0.00000000000000E+00   0.00000000000000E+00  -2.32775227236102E-10
      5.94659825606419E-34  -2.32775227236102E-10   4.53778054377879E-18   0.00000000000000E+00   0.00000000000000E+00
      0.00000000000000E+00   0.00000000000000E+00   0.00000000000000E+00   0.00000000000000E+00   0.00000000000000E+00
      3.24964389230863E-18   0.00000000000000E+00   0.00000000000000E+00   0.00000000000000E+00   0.00000000000000E+00
      7.96531842541965E-19  -1.13070618278371E-33   7.96531842541964E-19  -1.15519817509460E-17   1.57929909025505E-03
      1.57929903894593E-03   0.00000000000000E+00   0.00000000000000E+00   2.32775226439571E-10   5.36046357177288E-34
      2.32775226439571E-10   3.76455731485858E-18
      3.57379133189445E-02
      0.00000000000000E+00   5.72804826985824E-11   0.00000000000000E+00   0.00000000000000E+00  -2.61527396310137E-10
      5.76323275143146E-34  -2.61527396310137E-10   4.53771737861906E-18   0.00000000000000E+00   0.00000000000000E+00
      0.00000000000000E+00   0.00000000000000E+00   0.00000000000000E+00   0.00000000000000E+00   0.00000000000000E+00
      3.24733493202831E-18   0.00000000000000E+00   0.00000000000000E+00   0.00000000000000E+00   0.00000000000000E+00
      1.17760798180636E-18  -1.08842488496799E-33   1.17760798180635E-18  -1.15519008860273E-17   1.78689566594722E-03
      1.78689560829991E-03   0.00000000000000E+00   0.00000000000000E+00   2.61527395132529E-10   5.12101609824844E-34
      2.61527395132529E-10   3.76684857537993E-18
      4.03050379841723E-02
      0.00000000000000E+00   6.41011163003402E-11   0.00000000000000E+00   0.00000000000000E+00  -2.92665642774740E-10
      5.81881007662069E-34  -2.92665642774740E-10   4.53764790077675E-18   0.00000000000000E+00   0.00000000000000E+00
      0.00000000000000E+00   0.00000000000000E+00   0.00000000000000E+00   0.00000000000000E+00   0.00000000000000E+00
      3.24479522385330E-18   0.00000000000000E+00   0.00000000000000E+00   0.00000000000000E+00   0.00000000000000E+00
      1.94525645598650E-18  -1.10784922721300E-33   1.94525645598650E-18  -1.15518122884963E-17   2.01525189920861E-03
      2.01525183469696E-03   0.00000000000000E+00   0.00000000000000E+00   2.92665640829484E-10   5.25968219550927E-34
      2.92665640829484E-10   3.76936916386623E-18
      4.53288751159228E-02
      0.00000000000000E+00   7.14754790053989E-11   0.00000000000000E+00   0.00000000000000E+00  -3.26330962700436E-10
      5.87191564050372E-34  -3.26330962700436E-10   4.53757147977296E-18   0.00000000000000E+00   0.00000000000000E+00
      0.00000000000000E+00   0.00000000000000E+00   0.00000000000000E+00   0.00000000000000E+00   0.00000000000000E+00
      3.24200172342915E-18   0.00000000000000E+00   0.00000000000000E+00   0.00000000000000E+00   0.00000000000000E+00
      8.84322063254341E-18  -1.11426617913315E-33   8.84322063254341E-18  -1.15517152580747E-17   2.26644375579614E-03
      2.26644368386287E-03   0.00000000000000E+00   0.00000000000000E+00   3.26330953857215E-10   5.27074615082777E-34
      3.26330953857215E-10   3.77214205487255E-18
      5.08550959608485E-02
      0.00000000000000E+00   7.94335905196740E-11   0.00000000000000E+00   0.00000000000000E+00  -3.62660234669120E-10
      5.60299735801038E-34  -3.62660234669120E-10   4.53748742224058E-18   0.00000000000000E+00   0.00000000000000E+00
      0.00000000000000E+00   0.00000000000000E+00   0.00000000000000E+00   0.00000000000000E+00   0.00000000000000E+00
      3.23892908813815E-18   0.00000000000000E+00   0.00000000000000E+00   0.00000000000000E+00   0.00000000000000E+00
     -3.68458764016816E-18  -1.06184830327839E-33  -3.68458764016816E-18  -1.15516090393481E-17   2.54275479804242E-03
      2.54275471810002E-03   0.00000000000000E+00   0.00000000000000E+00   3.62660238353708E-10   5.01548567477348E-34
      3.62660238353708E-10   3.77519252896943E-18
      5.69339388902666E-02
      0.00000000000000E+00   8.80038832691745E-11   0.00000000000000E+00   0.00000000000000E+00  -4.01782922458280E-10
      5.60727906467167E-34  -4.01782922458280E-10   4.53739496566700E-18   0.00000000000000E+00   0.00000000000000E+00
      0.00000000000000E+00   0.00000000000000E+00   0.00000000000000E+00   0.00000000000000E+00   0.00000000000000E+00
      3.23554944849754E-18   0.00000000000000E+00   0.00000000000000E+00   0.00000000000000E+00   0.00000000000000E+00
      1.28199843722937E-17  -1.07469778174429E-33   1.28199843722937E-17  -1.15514928192377E-17   2.84669694451333E-03
      2.84669685594569E-03   0.00000000000000E+00   0.00000000000000E+00   4.01782909638296E-10   5.13969875277120E-34
      4.01782909638296E-10   3.77854840507311E-18
      6.36206661126266E-02
      0.00000000000000E+00   9.72122366216011E-11   0.00000000000000E+00   0.00000000000000E+00  -4.43816876683013E-10
      5.87419429530907E-34  -4.43816876683013E-10   4.53729327151693E-18   0.00000000000000E+00   0.00000000000000E+00
      0.00000000000000E+00   0.00000000000000E+00   0.00000000000000E+00   0.00000000000000E+00   0.00000000000000E+00
      3.23183215693526E-18   0.00000000000000E+00   0.00000000000000E+00   0.00000000000000E+00   0.00000000000000E+00
      1.52922949084381E-17  -1.09054567903792E-33   1.52922949084381E-17  -1.15513657248055E-17   3.18103330563133E-03
      3.18103320779628E-03   0.00000000000000E+00   0.00000000000000E+00   4.43816861390718E-10   5.03126249507013E-34
      4.43816861390718E-10   3.78224029635331E-18
      7.09760660572226E-02
      0.00000000000000E+00   1.07080958705732E-10   0.00000000000000E+00   0.00000000000000E+00  -4.88863575770636E-10
      5.75498643257041E-34  -4.88863575770636E-10   4.53718141767445E-18   0.00000000000000E+00   0.00000000000000E+00
      0.00000000000000E+00   0.00000000000000E+00   0.00000000000000E+00   0.00000000000000E+00   0.00000000000000E+00
      3.22774351171837E-18   0.00000000000000E+00   0.00000000000000E+00   0.00000000000000E+00   0.00000000000000E+00
      1.18787635320388E-17  -1.07231597281672E-33   1.18787635320388E-17  -1.15512268215281E-17   3.54880330286113E-03
      3.54880319509403E-03   0.00000000000000E+00   0.00000000000000E+00   4.88863563891872E-10   4.96817329559681E-34
      4.88863563891872E-10   3.78630189213525E-18
      7.90670059962782E-02
      0.00000000000000E+00   1.17627553550777E-10   0.00000000000000E+00   0.00000000000000E+00  -5.37002483189021E-10
      5.74956158120231E-34  -5.37002483189021E-10   4.53705839013685E-18   0.00000000000000E+00   0.00000000000000E+00
      0.00000000000000E+00   0.00000000000000E+00   0.00000000000000E+00   0.00000000000000E+00   0.00000000000000E+00
      3.22324645359458E-18   0.00000000000000E+00   0.00000000000000E+00   0.00000000000000E+00   0.00000000000000E+00
      1.74104640071714E-17  -1.06822477106140E-33   1.74104640071714E-17  -1.15510751122034E-17   3.95335029981391E-03
      3.95335018143252E-03   0.00000000000000E+00   0.00000000000000E+00   5.37002465778557E-10   4.93268612941164E-34
      5.37002465778557E-10   3.79077026847196E-18
      8.79670399292394E-02
      0.00000000000000E+00   1.28863287068858E-10   0.00000000000000E+00   0.00000000000000E+00  -5.88284533392576E-10
      5.89764810436853E-34  -5.88284533392576E-10   4.53692307388792E-18   0.00000000000000E+00   0.00000000000000E+00
      0.00000000000000E+00   0.00000000000000E+00   0.00000000000000E+00   0.00000000000000E+00   0.00000000000000E+00
      3.21830023248892E-18   0.00000000000000E+00   0.00000000000000E+00   0.00000000000000E+00   0.00000000000000E+00
      2.08617291064728E-17  -1.07003922289071E-33   2.08617291064728E-17  -1.15509095367265E-17   4.39835199646197E-03
      4.39835186677268E-03   0.00000000000000E+00   0.00000000000000E+00   5.88284512530847E-10   4.80274412453857E-34
      5.88284512530847E-10   3.79568623034967E-18
      9.77570772554967E-02
      0.00000000000000E+00   1.40791584561554E-10   0.00000000000000E+00   0.00000000000000E+00  -6.42724809226101E-10
      5.90618039729616E-34  -6.42724809226101E-10   4.53677424286940E-18   0.00000000000000E+00   0.00000000000000E+00
      0.00000000000000E+00   0.00000000000000E+00   0.00000000000000E+00   0.00000000000000E+00   0.00000000000000E+00
      3.21286004133867E-18   0.00000000000000E+00   0.00000000000000E+00   0.00000000000000E+00   0.00000000000000E+00
      1.33024060719068E-17  -1.06741401204311E-33   1.33024060719068E-17  -1.15507289730056E-17   4.88785386277484E-03
      4.88785372108061E-03   0.00000000000000E+00   0.00000000000000E+00   6.42724795923695E-10   4.76795972313494E-34
      6.42724795923695E-10   3.80109468879757E-18
      1.07757077255497E-01
      0.00000000000000E+00   1.52522669428345E-10   0.00000000000000E+00   0.00000000000000E+00  -6.96262195611469E-10
      5.64090422887461E-34  -6.96262195611469E-10   4.53662223800713E-18   0.00000000000000E+00   0.00000000000000E+00
      0.00000000000000E+00   0.00000000000000E+00   0.00000000000000E+00   0.00000000000000E+00   0.00000000000000E+00
      3.20730387653328E-18   0.00000000000000E+00   0.00000000000000E+00   0.00000000000000E+00   0.00000000000000E+00
      7.22152960942052E-17  -1.03948658723969E-33   7.22152960942052E-17  -1.15505462231753E-17   5.38785386277483E-03
      5.38785370927409E-03   0.00000000000000E+00   0.00000000000000E+00   6.96262123396173E-10   4.75396164352229E-34
      6.96262123396173E-10   3.80662010863487E-18
      1.17757077255497E-01
      0.00000000000000E+00   1.63809687244595E-10   0.00000000000000E+00   0.00000000000000E+00  -7.47770206949922E-10
      5.84827694485573E-34  -7.47770206949922E-10   4.53647025123773E-18   0.00000000000000E+00   0.00000000000000E+00
      0.00000000000000E+00   0.00000000000000E+00   0.00000000000000E+00   0.00000000000000E+00   0.00000000000000E+00
      3.20174841317827E-18   0.00000000000000E+00   0.00000000000000E+00   0.00000000000000E+00   0.00000000000000E+00
      4.54373092377078E-17  -1.04451682362469E-33   4.54373092377078E-17  -1.15503651661796E-17   5.88785386277483E-03
      5.88785369791446E-03   0.00000000000000E+00   0.00000000000000E+00   7.47770161512613E-10   4.59689129139115E-34
      7.47770161512613E-10   3.81214650176362E-18
      1.27757077255497E-01
      0.00000000000000E+00   1.74666392745766E-10   0.00000000000000E+00   0.00000000000000E+00  -7.97311899123200E-10
      5.85162397666612E-34  -7.97311899123200E-10   4.53631828239138E-18   0.00000000000000E+00   0.00000000000000E+00
      0.00000000000000E+00   0.00000000000000E+00   0.00000000000000E+00   0.00000000000000E+00   0.00000000000000E+00
      3.19619364560875E-18   0.00000000000000E+00   0.00000000000000E+00   0.00000000000000E+00   0.00000000000000E+00
      3.49468868386976E-17  -1.03820043676301E-33   3.49468868386976E-17  -1.15501857906794E-17   6.38785386277483E-03
      6.38785368698786E-03   0.00000000000000E+00   0.00000000000000E+00   7.97311864176313E-10   4.53038039096396E-34
      7.97311864176313E-10   3.81767386267923E-18
      1.37757077255497E-01
      0.00000000000000E+00   1.85106420085883E-10   0.00000000000000E+00   0.00000000000000E+00  -8.44949728436821E-10
      5.48727748166876E-34  -8.44949728436821E-10   4.53616633129627E-18   0.00000000000000E+00   0.00000000000000E+00
      0.00000000000000E+00   0.00000000000000E+00   0.00000000000000E+00   0.00000000000000E+00   0.00000000000000E+00
      3.19063956812794E-18   0.00000000000000E+00   0.00000000000000E+00   0.00000000000000E+00   0.00000000000000E+00
      4.31788109981768E-17  -9.78174064792684E-34   4.31788109981768E-17  -1.15500080853087E-17   6.88785386277483E-03
      6.88785367648059E-03   0.00000000000000E+00   0.00000000000000E+00   8.44949685258010E-10   4.29446316625809E-34
      8.44949685258010E-10   3.82320218588458E-18
      1.47757077255497E-01
      0.00000000000000E+00   1.95143214094851E-10   0.00000000000000E+00   0.00000000000000E+00  -8.90745326785386E-10
      5.57019296898679E-34  -8.90745326785386E-10   4.53601439777966E-18   0.00000000000000E+00   0.00000000000000E+00
      0.00000000000000E+00   0.00000000000000E+00   0.00000000000000E+00   0.00000000000000E+00   0.00000000000000E+00
      3.18508617506501E-18   0.00000000000000E+00   0.00000000000000E+00   0.00000000000000E+00   0.00000000000000E+00
      4.03904308366021E-17  -9.88600196464266E-34   4.03904308366021E-17  -1.15498320387621E-17   7.38785386277483E-03
      7.38785366637907E-03   0.00000000000000E+00   0.00000000000000E+00   8.90745286394955E-10   4.31580899565587E-34
      8.90745286394955E-10   3.82873146591745E-18
      1.57757077255497E-01
      0.00000000000000E+00   2.04789977876242E-10   0.00000000000000E+00   0.00000000000000E+00  -9.34759109086056E-10
      5.85891810014303E-34  -9.34759109086056E-10   4.53586248167031E-18   0.00000000000000E+00   0.00000000000000E+00
      0.00000000000000E+00   0.00000000000000E+00   0.00000000000000E+00   0.00000000000000E+00   0.00000000000000E+00
      3.17953346086286E-18   0.00000000000000E+00   0.00000000000000E+00   0.00000000000000E+00   0.00000000000000E+00
      4.13918277894153E-17  -1.01359864423233E-33   4.13918277894153E-17  -1.15496576399034E-17   7.88785386277484E-03
      7.88785365667009E-03   0.00000000000000E+00   0.00000000000000E+00   9.34759067694228E-10   4.27706834218027E-34
      9.34759067694228E-10   3.83426169737020E-18
      1.67757077255497E-01
      0.00000000000000E+00   2.14059653649497E-10   0.00000000000000E+00   0.00000000000000E+00  -9.77050423082767E-10
      5.56800442571859E-34  -9.77050423082767E-10   4.53571058279618E-18   0.00000000000000E+00   0.00000000000000E+00
      0.00000000000000E+00   0.00000000000000E+00   0.00000000000000E+00   0.00000000000000E+00   0.00000000000000E+00
      3.17398141994649E-18   0.00000000000000E+00   0.00000000000000E+00   0.00000000000000E+00   0.00000000000000E+00
      3.90415144201699E-17  -9.69476308320770E-34   3.90415144201699E-17  -1.15494848775855E-17   8.38785386277484E-03
      8.38785364734056E-03   0.00000000000000E+00   0.00000000000000E+00   9.77050384041252E-10   4.12675865748912E-34
      9.77050384041252E-10   3.83979287484287E-18
      1.77757077255497E-01
      0.00000000000000E+00   2.22964943034654E-10   0.00000000000000E+00   0.00000000000000E+00  -1.01767738652830E-09
      5.73809933019678E-34  -1.01767738652830E-09   4.53555870098495E-18   0.00000000000000E+00   0.00000000000000E+00
      0.00000000000000E+00   0.00000000000000E+00   0.00000000000000E+00   0.00000000000000E+00   0.00000000000000E+00
      3.16843004678068E-18   0.00000000000000E+00   0.00000000000000E+00   0.00000000000000E+00   0.00000000000000E+00
      3.83716255162142E-17  -9.94219654358392E-34   3.83716255162142E-17  -1.15493137407288E-17   8.88785386277484E-03
      8.88785363837772E-03   0.00000000000000E+00   0.00000000000000E+00   1.01767734815667E-09   4.20409721338714E-34
      1.01767734815667E-09   3.84532499296311E-18
      1.87757077255497E-01
      0.00000000000000E+00   2.31518233801943E-10   0.00000000000000E+00   0.00000000000000E+00  -1.05669673771982E-09
      5.71879670705147E-34  -1.05669673771982E-09   4.53540683606590E-18   0.00000000000000E+00   0.00000000000000E+00
      0.00000000000000E+00   0.00000000000000E+00   0.00000000000000E+00   0.00000000000000E+00   0.00000000000000E+00
      3.16287933591405E-18   0.00000000000000E+00   0.00000000000000E+00   0.00000000000000E+00   0.00000000000000E+00
      3.77402179290545E-17  -9.72051342974191E-34   3.77402179290545E-17  -1.15491442183929E-17   9.38785386277484E-03
      9.38785362976911E-03   0.00000000000000E+00   0.00000000000000E+00   1.05669669997960E-09   4.00171672269044E-34
      1.05669669997960E-09   3.85085804641297E-18
      1.97757077255497E-01
      0.00000000000000E+00   2.39731618466119E-10   0.00000000000000E+00   0.00000000000000E+00  -1.09416389101722E-09