DF-ISE text

Info {
  version   = 1.0
  type      = xyplot
  datasets  = [
    "time"
    "source OuterVoltage" "source InnerVoltage" "source QuasiFermiPotential" "source DisplacementCurrent" "source eCurrent"
    "source hCurrent" "source TotalCurrent" "source Charge" "gate OuterVoltage" "gate InnerVoltage"
    "gate QuasiFermiPotential" "gate DisplacementCurrent" "gate eCurrent" "gate hCurrent" "gate TotalCurrent"
    "gate Charge" "substrate OuterVoltage" "substrate InnerVoltage" "substrate QuasiFermiPotential" "substrate DisplacementCurrent"
    "substrate eCurrent" "substrate hCurrent" "substrate TotalCurrent" "substrate Charge" "drain OuterVoltage"
    "drain InnerVoltage" "drain QuasiFermiPotential" "drain DisplacementCurrent" "drain eCurrent" "drain hCurrent"
    "drain TotalCurrent" "drain Charge" ]
  functions = [
    Time
    OuterVoltage InnerVoltage QuasiFermiPotential DisplacementCurrent eCurrent
    hCurrent TotalCurrent Charge OuterVoltage InnerVoltage
    QuasiFermiPotential DisplacementCurrent eCurrent hCurrent TotalCurrent
    Charge OuterVoltage InnerVoltage QuasiFermiPotential DisplacementCurrent
    eCurrent hCurrent TotalCurrent Charge OuterVoltage
    InnerVoltage QuasiFermiPotential DisplacementCurrent eCurrent hCurrent
    TotalCurrent Charge ]
}

Data {
      0.00000000000000E+00
      0.00000000000000E+00   0.00000000000000E+00   0.00000000000000E+00   0.00000000000000E+00  -5.85132105501201E-21
     -1.20473196945742E-34  -5.85132105501213E-21   5.02085824479429E-18   0.00000000000000E+00   0.00000000000000E+00
      0.00000000000000E+00   0.00000000000000E+00   0.00000000000000E+00   0.00000000000000E+00   0.00000000000000E+00
      2.33526822374706E-18   0.00000000000000E+00   0.00000000000000E+00   0.00000000000000E+00   0.00000000000000E+00
     -1.74708407459783E-20   2.59659972309236E-34  -1.74708407459781E-20  -1.20297445193925E-17   0.00000000000000E+00
      0.00000000000000E+00   0.00000000000000E+00   0.00000000000000E+00   2.33221618009904E-20  -1.39186775363494E-34
      2.33221618009902E-20   4.67361805085116E-18
      0.00000000000000E+00
      0.00000000000000E+00   0.00000000000000E+00   0.00000000000000E+00   0.00000000000000E+00  -7.57807599400272E-20
     -8.17373207957225E-35  -7.57807599400273E-20   5.01910790277433E-18   0.00000000000000E+00   0.00000000000000E+00
      0.00000000000000E+00   0.00000000000000E+00   0.00000000000000E+00   0.00000000000000E+00   0.00000000000000E+00
      2.33019415775430E-18   0.00000000000000E+00   0.00000000000000E+00   0.00000000000000E+00   0.00000000000000E+00
     -1.90882832151921E-19   2.13374161553525E-34  -1.90882832151921E-19  -1.20214616239142E-17   0.00000000000000E+00
      0.00000000000000E+00   0.00000000000000E+00   0.00000000000000E+00   2.66663592091948E-19  -1.31636840757802E-34
      2.66663592091948E-19   4.67215956338556E-18
      1.00000000000000E-03
      0.00000000000000E+00   2.35895473223873E-12   0.00000000000000E+00   0.00000000000000E+00  -1.13700850700054E-11
     -1.38598810426721E-34  -1.13700850700054E-11   5.01908097375336E-18   0.00000000000000E+00   0.00000000000000E+00
      0.00000000000000E+00   0.00000000000000E+00   0.00000000000000E+00   0.00000000000000E+00   0.00000000000000E+00
      2.32953046489445E-18   0.00000000000000E+00   0.00000000000000E+00   0.00000000000000E+00   0.00000000000000E+00
     -2.94456911583347E-19   2.72421112454930E-34  -2.94456911583347E-19  -1.20214267600298E-17   5.00000000000000E-05
      4.99999976329489E-05   0.00000000000000E+00   0.00000000000000E+00   1.13700853644623E-11  -1.33822302028209E-34
      1.13700853644623E-11   4.67281532138204E-18
      2.09333333333333E-03
      0.00000000000000E+00   4.92991451024247E-12   0.00000000000000E+00   0.00000000000000E+00  -2.37620503822236E-11
     -1.29909579115659E-34  -2.37620503822236E-11   5.01905153168981E-18   0.00000000000000E+00   0.00000000000000E+00
      0.00000000000000E+00   0.00000000000000E+00   0.00000000000000E+00   0.00000000000000E+00   0.00000000000000E+00
      2.32880483629647E-18   0.00000000000000E+00   0.00000000000000E+00   0.00000000000000E+00   0.00000000000000E+00
     -4.91178994473072E-20   2.65634199837889E-34  -4.91178994473069E-20  -1.20213886658040E-17   1.04666666666667E-04
      1.04666661719825E-04   0.00000000000000E+00   0.00000000000000E+00   2.37620504313415E-11  -1.35724620722230E-34
      2.37620504313415E-11   4.67353229781773E-18
      3.29600000000000E-03
      0.00000000000000E+00   7.74773253191845E-12   0.00000000000000E+00   0.00000000000000E+00  -3.73437877033971E-11
     -1.36559732439811E-34  -3.73437877033971E-11   5.01901914582290E-18   0.00000000000000E+00   0.00000000000000E+00
      0.00000000000000E+00   0.00000000000000E+00   0.00000000000000E+00   0.00000000000000E+00   0.00000000000000E+00
      2.32800665560248E-18   0.00000000000000E+00   0.00000000000000E+00   0.00000000000000E+00   0.00000000000000E+00
      1.47167078476849E-19   2.65152769517428E-34   1.47167078476849E-19  -1.20213467906354E-17   1.64800000000000E-04
      1.64799992225667E-04   0.00000000000000E+00   0.00000000000000E+00   3.73437875562300E-11  -1.28593037077617E-34
      3.73437875562300E-11   4.67432098921001E-18
      4.61893333333333E-03
      0.00000000000000E+00   1.08346524109901E-11   0.00000000000000E+00   0.00000000000000E+00  -5.22225394735580E-11
     -1.35831074265990E-34  -5.22225394735580E-11   5.01898352185790E-18   0.00000000000000E+00   0.00000000000000E+00
      0.00000000000000E+00   0.00000000000000E+00   0.00000000000000E+00   0.00000000000000E+00   0.00000000000000E+00
      2.32712866985147E-18   0.00000000000000E+00   0.00000000000000E+00   0.00000000000000E+00   0.00000000000000E+00
     -9.47813363109306E-20   2.47354633058666E-34  -9.47813363109303E-20  -1.20213007623858E-17   2.30946666666667E-04
      2.30946655794828E-04   0.00000000000000E+00   0.00000000000000E+00   5.22225395683393E-11  -1.11523558792676E-34
      5.22225395683393E-11   4.67518857067637E-18
      6.07416000000000E-03
      0.00000000000000E+00   1.42146773129885E-11   0.00000000000000E+00   0.00000000000000E+00  -6.85140128670540E-11
     -1.33989814793186E-34  -6.85140128670540E-11   5.01894433608833E-18   0.00000000000000E+00   0.00000000000000E+00
      0.00000000000000E+00   0.00000000000000E+00   0.00000000000000E+00   0.00000000000000E+00   0.00000000000000E+00
      2.32616290125457E-18   0.00000000000000E+00   0.00000000000000E+00   0.00000000000000E+00   0.00000000000000E+00
     -8.31699567510796E-20   2.74262283611885E-34  -8.31699567510793E-20  -1.20212501729456E-17   3.03708000000000E-04
      3.03707985736535E-04   0.00000000000000E+00   0.00000000000000E+00   6.85140129502240E-11  -1.40272468818700E-34
      6.85140129502240E-11   4.67614293560275E-18
      7.67490933333333E-03
      0.00000000000000E+00   1.79136397787366E-11   0.00000000000000E+00   0.00000000000000E+00  -8.63426536913590E-11
     -1.13760891115035E-34  -8.63426536913590E-11   5.01890123245854E-18   0.00000000000000E+00   0.00000000000000E+00
      0.00000000000000E+00   0.00000000000000E+00   0.00000000000000E+00   0.00000000000000E+00   0.00000000000000E+00
      2.32510057480934E-18   0.00000000000000E+00   0.00000000000000E+00   0.00000000000000E+00   0.00000000000000E+00
      1.32695558559843E-19   2.65280154798350E-34   1.32695558559843E-19  -1.20211945748959E-17   3.83745466666667E-04
      3.83745448691543E-04   0.00000000000000E+00   0.00000000000000E+00   8.63426535586634E-11  -1.51519263683314E-34
      8.63426535586634E-11   4.67719276762797E-18
      9.43573360000000E-03
      0.00000000000000E+00   2.19592296537432E-11   0.00000000000000E+00   0.00000000000000E+00  -1.05841895067416E-10
     -1.07449892769012E-34  -1.05841895067416E-10   5.01885381933341E-18   0.00000000000000E+00   0.00000000000000E+00
      0.00000000000000E+00   0.00000000000000E+00   0.00000000000000E+00   0.00000000000000E+00   0.00000000000000E+00
      2.32393203869541E-18   0.00000000000000E+00   0.00000000000000E+00   0.00000000000000E+00   0.00000000000000E+00
     -2.55239910711164E-20   2.35052071902784E-34  -2.55239910711161E-20  -1.20211334778880E-17   4.71786680000000E-04
      4.71786657965418E-04   0.00000000000000E+00   0.00000000000000E+00   1.05841895092940E-10  -1.27602179133773E-34
      1.05841895092940E-10   4.67834761985917E-18
      1.13726402933333E-02
      0.00000000000000E+00   2.63810504840940E-11   0.00000000000000E+00   0.00000000000000E+00  -1.27154331580669E-10
     -1.04263020362997E-34  -1.27154331580669E-10   5.01880166594565E-18   0.00000000000000E+00   0.00000000000000E+00
      0.00000000000000E+00   0.00000000000000E+00   0.00000000000000E+00   0.00000000000000E+00   0.00000000000000E+00
      2.32264667673369E-18   0.00000000000000E+00   0.00000000000000E+00   0.00000000000000E+00   0.00000000000000E+00
      1.73748109885831E-20   2.38808055805247E-34   1.73748109885834E-20  -1.20210663447275E-17   5.68632014666667E-04
      5.68631988195109E-04   0.00000000000000E+00   0.00000000000000E+00   1.27154331563294E-10  -1.34545035442250E-34
      1.27154331563294E-10   4.67961800204817E-18
      1.35032376560000E-02
      0.00000000000000E+00   3.12105829933984E-11   0.00000000000000E+00   0.00000000000000E+00  -1.50431778565639E-10
     -1.14957205977315E-34  -1.50431778565639E-10   5.01874429848925E-18   0.00000000000000E+00   0.00000000000000E+00
      0.00000000000000E+00   0.00000000000000E+00   0.00000000000000E+00   0.00000000000000E+00   0.00000000000000E+00
      2.32123281212057E-18   0.00000000000000E+00   0.00000000000000E+00   0.00000000000000E+00   0.00000000000000E+00
      2.56800059924647E-19   2.47818190753153E-34   2.56800059924647E-19  -1.20209925871429E-17   6.75161882800000E-04
      6.75161851482342E-04   0.00000000000000E+00   0.00000000000000E+00   1.50431778308839E-10  -1.32860984775839E-34
      1.50431778308839E-10   4.68101547653303E-18
      1.58468947549333E-02
      0.00000000000000E+00   3.64812602773113E-11   0.00000000000000E+00   0.00000000000000E+00  -1.75835184565802E-10
     -1.26452260916303E-34  -1.75835184565802E-10   5.01868119582342E-18   0.00000000000000E+00   0.00000000000000E+00
      0.00000000000000E+00   0.00000000000000E+00   0.00000000000000E+00   0.00000000000000E+00   0.00000000000000E+00
      2.31967760156987E-18   0.00000000000000E+00   0.00000000000000E+00   0.00000000000000E+00   0.00000000000000E+00
      2.41741793935089E-19   2.62170209150252E-34   2.41741793935090E-19  -1.20209115612242E-17   7.92344737746667E-04
      7.92344701140269E-04   0.00000000000000E+00   0.00000000000000E+00   1.75835184324060E-10  -1.35717948233949E-34
      1.75835184324060E-10   4.68255276383094E-18
      1.84249175637600E-02
      0.00000000000000E+00   4.22283238597338E-11   0.00000000000000E+00   0.00000000000000E+00  -2.03534346983760E-10
     -1.14753019894970E-34  -2.03534346983760E-10   5.01861178474862E-18   0.00000000000000E+00   0.00000000000000E+00
      0.00000000000000E+00   0.00000000000000E+00   0.00000000000000E+00   0.00000000000000E+00   0.00000000000000E+00
      2.31796691891123E-18   0.00000000000000E+00   0.00000000000000E+00   0.00000000000000E+00   0.00000000000000E+00
      5.16784936830486E-19   2.28545428218335E-34   5.16784936830486E-19  -1.20208225625190E-17   9.21245878188001E-04
      9.21245835814847E-04   0.00000000000000E+00   0.00000000000000E+00   2.03534346466975E-10  -1.13792408323365E-34
      2.03534346466975E-10   4.68424385885907E-18
      2.12607426534693E-02
      0.00000000000000E+00   4.84887334593881E-11   0.00000000000000E+00   0.00000000000000E+00  -2.33707383251475E-10
     -1.15848453902954E-34  -2.33707383251475E-10   5.01853543481198E-18   0.00000000000000E+00   0.00000000000000E+00
      0.00000000000000E+00   0.00000000000000E+00   0.00000000000000E+00   0.00000000000000E+00   0.00000000000000E+00
      2.31608522709856E-18   0.00000000000000E+00   0.00000000000000E+00   0.00000000000000E+00   0.00000000000000E+00
      5.39266537753918E-19   2.48689370309743E-34   5.39266537753918E-19  -1.20207248207716E-17   1.06303713267347E-03
      1.06303708401844E-03   0.00000000000000E+00   0.00000000000000E+00   2.33707382712209E-10  -1.32840916406788E-34
      2.33707382712209E-10   4.68610415886109E-18
      2.43801502521496E-02
      0.00000000000000E+00   5.53010493641007E-11   0.00000000000000E+00   0.00000000000000E+00  -2.66539910813066E-10
     -1.01159045431439E-34  -2.66539910813066E-10   5.01845145259573E-18   0.00000000000000E+00   0.00000000000000E+00
      0.00000000000000E+00   0.00000000000000E+00   0.00000000000000E+00   0.00000000000000E+00   0.00000000000000E+00
      2.31401543747664E-18   0.00000000000000E+00   0.00000000000000E+00   0.00000000000000E+00   0.00000000000000E+00
      1.03569076199606E-18   2.18003396371231E-34   1.03569076199606E-18  -1.20206174942966E-17   1.21900751260748E-03
      1.21900745711681E-03   0.00000000000000E+00   0.00000000000000E+00   2.66539909777375E-10  -1.16844350939792E-34
      2.66539909777375E-10   4.68815060422424E-18
      2.78114986106979E-02
      0.00000000000000E+00   6.27051021120109E-11   0.00000000000000E+00   0.00000000000000E+00  -3.02223852832896E-10
     -1.11880765671665E-34  -3.02223852832896E-10   5.01835907543705E-18   0.00000000000000E+00   0.00000000000000E+00
      0.00000000000000E+00   0.00000000000000E+00   0.00000000000000E+00   0.00000000000000E+00   0.00000000000000E+00
      2.31173875504950E-18   0.00000000000000E+00   0.00000000000000E+00   0.00000000000000E+00   0.00000000000000E+00
      1.66014803146157E-18   2.39519065481686E-34   1.66014803146157E-18  -1.20204996639867E-17   1.39057493053490E-03
      1.39057486761482E-03   0.00000000000000E+00   0.00000000000000E+00   3.02223851172748E-10  -1.27638299810021E-34
      3.02223851172748E-10   4.69040183350012E-18
      3.15859818051010E-02
      0.00000000000000E+00   7.07417234026042E-11   0.00000000000000E+00   0.00000000000000E+00  -3.40955794675403E-10
     -1.19441852118888E-34  -3.40955794675403E-10   5.01825746452350E-18   0.00000000000000E+00   0.00000000000000E+00
      0.00000000000000E+00   0.00000000000000E+00   0.00000000000000E+00   0.00000000000000E+00   0.00000000000000E+00
      2.30923450836090E-18   0.00000000000000E+00   0.00000000000000E+00   0.00000000000000E+00   0.00000000000000E+00
      2.46899759380580E-18   2.37815643928812E-34   2.46899759380580E-18  -1.20203703269552E-17   1.57929909025505E-03
      1.57929901927083E-03   0.00000000000000E+00   0.00000000000000E+00   3.40955792206406E-10  -1.18373791809924E-34
      3.40955792206406E-10   4.69287835407076E-18
      3.57379133189445E-02
      0.00000000000000E+00   7.94522627033579E-11   0.00000000000000E+00   0.00000000000000E+00  -3.82934824673548E-10
     -1.17836531981019E-34  -3.82934824673548E-10   5.01814569730155E-18   0.00000000000000E+00   0.00000000000000E+00
      0.00000000000000E+00   0.00000000000000E+00   0.00000000000000E+00   0.00000000000000E+00   0.00000000000000E+00
      2.30647996246468E-18   0.00000000000000E+00   0.00000000000000E+00   0.00000000000000E+00   0.00000000000000E+00
      3.66828252759800E-18   2.43222162989171E-34   3.66828252759800E-18  -1.20202283898204E-17   1.78689566594722E-03
      1.78689558622264E-03   0.00000000000000E+00   0.00000000000000E+00   3.82934821005265E-10  -1.25385631008152E-34
      3.82934821005265E-10   4.69560273005420E-18
      4.03050379841723E-02
      0.00000000000000E+00   8.88780281247628E-11   0.00000000000000E+00   0.00000000000000E+00  -4.28359738393571E-10
     -1.18447968915710E-34  -4.28359738393571E-10   5.01802275913120E-18   0.00000000000000E+00   0.00000000000000E+00
      0.00000000000000E+00   0.00000000000000E+00   0.00000000000000E+00   0.00000000000000E+00   0.00000000000000E+00
      2.30345011331922E-18   0.00000000000000E+00   0.00000000000000E+00   0.00000000000000E+00   0.00000000000000E+00
      5.04647166056600E-18   2.36067458329400E-34   5.04647166056600E-18  -1.20200726616608E-17   2.01525189920861E-03
      2.01525181002600E-03   0.00000000000000E+00   0.00000000000000E+00   4.28359733347100E-10  -1.17619489413690E-34
      4.28359733347100E-10   4.69859978921031E-18
      4.53288751159228E-02
      0.00000000000000E+00   9.90595398461429E-11   0.00000000000000E+00   0.00000000000000E+00  -4.77425536632320E-10
     -1.14646493925581E-34  -4.77425536632320E-10   5.01788753411135E-18   0.00000000000000E+00   0.00000000000000E+00
      0.00000000000000E+00   0.00000000000000E+00   0.00000000000000E+00   0.00000000000000E+00   0.00000000000000E+00
      2.30011746176452E-18   0.00000000000000E+00   0.00000000000000E+00   0.00000000000000E+00   0.00000000000000E+00
      7.57733617465745E-18   2.39860645304459E-34   7.57733617465745E-18  -1.20199018466597E-17   2.26644375579614E-03
      2.26644365639719E-03   0.00000000000000E+00   0.00000000000000E+00   4.77425529054984E-10  -1.25214151378878E-34
      4.77425529054984E-10   4.70189685078386E-18
      5.08550959608485E-02
      0.00000000000000E+00   1.10035648728441E-10   0.00000000000000E+00   0.00000000000000E+00  -5.30319198584186E-10
     -1.32706121769771E-34  -5.30319198584186E-10   5.01773879499325E-18   0.00000000000000E+00   0.00000000000000E+00
      0.00000000000000E+00   0.00000000000000E+00   0.00000000000000E+00   0.00000000000000E+00   0.00000000000000E+00
      2.29645176504670E-18   0.00000000000000E+00   0.00000000000000E+00   0.00000000000000E+00   0.00000000000000E+00
      1.10914073779775E-17   2.55032025040894E-34   1.10914073779775E-17  -1.20197145364594E-17   2.54275479804242E-03
      2.54275468762980E-03   0.00000000000000E+00   0.00000000000000E+00   5.30319187492779E-10  -1.22325903271124E-34
      5.30319187492779E-10   4.70552397641946E-18
      5.69339388902666E-02
      0.00000000000000E+00   1.21842483053810E-10   0.00000000000000E+00   0.00000000000000E+00  -5.87214355916111E-10
     -1.25250434594029E-34  -5.87214355916111E-10   5.01757519209545E-18   0.00000000000000E+00   0.00000000000000E+00
      0.00000000000000E+00   0.00000000000000E+00   0.00000000000000E+00   0.00000000000000E+00   0.00000000000000E+00
      2.29241976375421E-18   0.00000000000000E+00   0.00000000000000E+00   0.00000000000000E+00   0.00000000000000E+00
      1.61901631971670E-17   2.54755234822810E-34   1.61901631971670E-17  -1.20195092023994E-17   2.84669694451333E-03
      2.84669682225349E-03   0.00000000000000E+00   0.00000000000000E+00   5.87214339725948E-10  -1.29504800228781E-34
      5.87214339725948E-10   4.70951424654971E-18
      6.36206661126266E-02
      0.00000000000000E+00   1.34512126176240E-10   0.00000000000000E+00   0.00000000000000E+00  -6.48265143021538E-10
     -1.15567764918045E-34  -6.48265143021538E-10   5.01739524111728E-18   0.00000000000000E+00   0.00000000000000E+00
      0.00000000000000E+00   0.00000000000000E+00   0.00000000000000E+00   0.00000000000000E+00   0.00000000000000E+00
      2.28798488163888E-18   0.00000000000000E+00   0.00000000000000E+00   0.00000000000000E+00   0.00000000000000E+00
      2.36416120076329E-17   2.28709173045834E-34   2.36416120076329E-17  -1.20192841875770E-17   3.18103330563133E-03
      3.18103317065852E-03   0.00000000000000E+00   0.00000000000000E+00   6.48265119379927E-10  -1.13141408127788E-34
      6.48265119379927E-10   4.71390406482085E-18
      7.09760660572226E-02
      0.00000000000000E+00   1.48071078256488E-10   0.00000000000000E+00   0.00000000000000E+00  -7.13598825257880E-10
     -1.08963542567929E-34  -7.13598825257880E-10   5.01719730974649E-18   0.00000000000000E+00   0.00000000000000E+00
      0.00000000000000E+00   0.00000000000000E+00   0.00000000000000E+00   0.00000000000000E+00   0.00000000000000E+00
      2.28310689574927E-18   0.00000000000000E+00   0.00000000000000E+00   0.00000000000000E+00   0.00000000000000E+00
      3.42988468095116E-17   2.08557168484241E-34   3.42988468095116E-17  -1.20190376989862E-17   3.54880330286113E-03
      3.54880315428300E-03   0.00000000000000E+00   0.00000000000000E+00   7.13598790959033E-10  -9.95936259163126E-35
      7.13598790959033E-10   4.71873349349050E-18
      7.90670059962782E-02
      0.00000000000000E+00   1.62538556865881E-10   0.00000000000000E+00   0.00000000000000E+00  -7.83307438071024E-10
     -1.20786473863375E-34  -7.83307438071024E-10   5.01697960293931E-18   0.00000000000000E+00   0.00000000000000E+00
      0.00000000000000E+00   0.00000000000000E+00   0.00000000000000E+00   0.00000000000000E+00   0.00000000000000E+00
      2.27774157389409E-18   0.00000000000000E+00   0.00000000000000E+00   0.00000000000000E+00   0.00000000000000E+00
      1.02976447676462E-16   2.56697114649812E-34   1.02976447676462E-16  -1.20187677997911E-17   3.95335029981391E-03
      3.95335013671884E-03   0.00000000000000E+00   0.00000000000000E+00   7.83307335094576E-10  -1.35910640786436E-34
      7.83307335094576E-10   4.72404662295763E-18
      8.79670399292394E-02
      0.00000000000000E+00   1.77924473179482E-10   0.00000000000000E+00   0.00000000000000E+00  -8.57437951519411E-10
     -1.07861920708102E-34  -8.57437951519411E-10   5.01674014674405E-18   0.00000000000000E+00   0.00000000000000E+00
      0.00000000000000E+00   0.00000000000000E+00   0.00000000000000E+00   0.00000000000000E+00   0.00000000000000E+00
      2.27184027626398E-18   0.00000000000000E+00   0.00000000000000E+00   0.00000000000000E+00   0.00000000000000E+00
      7.29436101434961E-17   2.29807628831620E-34   7.29436101434961E-17  -1.20184724019818E-17   4.39835199646197E-03
      4.39835181792840E-03   0.00000000000000E+00   0.00000000000000E+00   8.57437878575801E-10  -1.21945708123518E-34
      8.57437878575801E-10   4.72989197897372E-18
      9.77570772554967E-02
      0.00000000000000E+00   1.94227226091083E-10   0.00000000000000E+00   0.00000000000000E+00  -9.35982210304256E-10
     -1.07093017083995E-34  -9.35982210304256E-10   5.01647677052368E-18   0.00000000000000E+00   0.00000000000000E+00
      0.00000000000000E+00   0.00000000000000E+00   0.00000000000000E+00   0.00000000000000E+00   0.00000000000000E+00
      2.26534951767383E-18   0.00000000000000E+00   0.00000000000000E+00   0.00000000000000E+00   0.00000000000000E+00
      1.05786124976389E-16   2.31561255807986E-34   1.05786124976389E-16  -1.20181492596213E-17   4.88785386277484E-03
      4.88785366788278E-03   0.00000000000000E+00   0.00000000000000E+00   9.35982104518131E-10  -1.24468238723991E-34
      9.35982104518131E-10   4.73632297142381E-18
      1.07757077255497E-01
      0.00000000000000E+00   2.10227491851865E-10   0.00000000000000E+00   0.00000000000000E+00  -1.01306526893686E-09
     -1.13798851761520E-34  -1.01306526893686E-09   5.01620777327351E-18   0.00000000000000E+00   0.00000000000000E+00
      0.00000000000000E+00   0.00000000000000E+00   0.00000000000000E+00   0.00000000000000E+00   0.00000000000000E+00
      2.25872027290001E-18   0.00000000000000E+00   0.00000000000000E+00   0.00000000000000E+00   0.00000000000000E+00
      1.22340733728007E-16   2.22637649495917E-34   1.22340733728007E-16  -1.20178211180642E-17   5.38785386277483E-03
      5.38785365182781E-03   0.00000000000000E+00   0.00000000000000E+00   1.01306514659613E-09  -1.08838797734397E-34
      1.01306514659613E-09   4.74289307189063E-18
      1.17757077255497E-01
      0.00000000000000E+00   2.25590026966050E-10   0.00000000000000E+00   0.00000000000000E+00  -1.08707239600213E-09
     -1.10320056022863E-34  -1.08707239600213E-09   5.01593880358763E-18   0.00000000000000E+00   0.00000000000000E+00
      0.00000000000000E+00   0.00000000000000E+00   0.00000000000000E+00   0.00000000000000E+00   0.00000000000000E+00
      2.25209174866723E-18   0.00000000000000E+00   0.00000000000000E+00   0.00000000000000E+00   0.00000000000000E+00
      1.21770405363811E-16   2.18393466877220E-34   1.21770405363811E-16  -1.20174949169290E-17   5.88785386277483E-03
      5.88785363641276E-03   0.00000000000000E+00   0.00000000000000E+00   1.08707227423172E-09  -1.08073410854357E-34
      1.08707227423172E-09   4.74946436467416E-18
      1.27757077255497E-01
      0.00000000000000E+00   2.40336070663394E-10   0.00000000000000E+00   0.00000000000000E+00  -1.15810636126686E-09
     -1.24737155394969E-34  -1.15810636126686E-09   5.01566986125382E-18   0.00000000000000E+00   0.00000000000000E+00
      0.00000000000000E+00   0.00000000000000E+00   0.00000000000000E+00   0.00000000000000E+00   0.00000000000000E+00
      2.24546393965807E-18   0.00000000000000E+00   0.00000000000000E+00   0.00000000000000E+00   0.00000000000000E+00
      1.21853888594479E-16   2.40658590207762E-34   1.21853888594479E-16  -1.20171706451312E-17   6.38785386277483E-03
      6.38785362161629E-03   0.00000000000000E+00   0.00000000000000E+00   1.15810623941297E-09  -1.15921434812793E-34
      1.15810623941297E-09   4.75603684421927E-18
      1.37757077255497E-01
      0.00000000000000E+00   2.54486602752550E-10   0.00000000000000E+00   0.00000000000000E+00  -1.22626856628454E-09
     -1.23985552448289E-34  -1.22626856628454E-09   5.01540094605680E-18   0.00000000000000E+00   0.00000000000000E+00
      0.00000000000000E+00   0.00000000000000E+00   0.00000000000000E+00   0.00000000000000E+00   0.00000000000000E+00
      2.23883684057706E-18   0.00000000000000E+00   0.00000000000000E+00   0.00000000000000E+00   0.00000000000000E+00
      1.02910414916492E-16   2.28623047660094E-34   1.02910414916492E-16  -1.20168482916251E-17   6.88785386277483E-03
      6.88785360741736E-03   0.00000000000000E+00   0.00000000000000E+00   1.22626846337413E-09  -1.04637495211804E-34
      1.22626846337413E-09   4.76261050499118E-18
      1.47757077255497E-01
      0.00000000000000E+00   2.68062251776339E-10   0.00000000000000E+00   0.00000000000000E+00  -1.29165886960258E-09
     -1.06010285143932E-34  -1.29165886960258E-09   5.01513205777744E-18   0.00000000000000E+00   0.00000000000000E+00
      0.00000000000000E+00   0.00000000000000E+00   0.00000000000000E+00   0.00000000000000E+00   0.00000000000000E+00
      2.23221044609985E-18   0.00000000000000E+00   0.00000000000000E+00   0.00000000000000E+00   0.00000000000000E+00
      1.19327502082737E-16   2.12676618304138E-34   1.19327502082737E-16  -1.20165278453340E-17   7.38785386277483E-03
      7.38785359379527E-03   0.00000000000000E+00   0.00000000000000E+00   1.29165875027508E-09  -1.06666333160206E-34
      1.29165875027508E-09   4.76918534145668E-18
      1.57757077255497E-01
      0.00000000000000E+00   2.81083225725360E-10   0.00000000000000E+00   0.00000000000000E+00  -1.35437496458106E-09
     -1.25428808467348E-34  -1.35437496458106E-09   5.01486319619911E-18   0.00000000000000E+00   0.00000000000000E+00
      0.00000000000000E+00   0.00000000000000E+00   0.00000000000000E+00   0.00000000000000E+00   0.00000000000000E+00
      2.22558475100889E-18   0.00000000000000E+00   0.00000000000000E+00   0.00000000000000E+00   0.00000000000000E+00
      9.83320103397889E-17   2.34994909279143E-34   9.83320103397889E-17  -1.20162092953543E-17   7.88785386277484E-03
      7.88785358072974E-03   0.00000000000000E+00   0.00000000000000E+00   1.35437486624905E-09  -1.09566100811794E-34
      1.35437486624905E-09   4.77576134814628E-18
      1.67757077255497E-01
      0.00000000000000E+00   2.93569284645706E-10   0.00000000000000E+00   0.00000000000000E+00  -1.41451243785913E-09
     -1.18906954973962E-34  -1.41451243785913E-09   5.01459436110494E-18   0.00000000000000E+00   0.00000000000000E+00
      0.00000000000000E+00   0.00000000000000E+00   0.00000000000000E+00   0.00000000000000E+00   0.00000000000000E+00
      2.21895975011194E-18   0.00000000000000E+00   0.00000000000000E+00   0.00000000000000E+00   0.00000000000000E+00
      1.16395583929679E-16   2.16935338342290E-34   1.16395583929679E-16  -1.20158926308384E-17   8.38785386277484E-03
      8.38785356820094E-03   0.00000000000000E+00   0.00000000000000E+00   1.41451232146355E-09  -9.80283833683283E-35
      1.41451232146355E-09   4.78233851962146E-18
      1.77757077255497E-01
      0.00000000000000E+00   3.05539742250273E-10   0.00000000000000E+00   0.00000000000000E+00  -1.47216461504429E-09
     -1.10299146274119E-34  -1.47216461504429E-09   5.01432555227922E-18   0.00000000000000E+00   0.00000000000000E+00
      0.00000000000000E+00   0.00000000000000E+00   0.00000000000000E+00   0.00000000000000E+00   0.00000000000000E+00
      2.21233543827409E-18   0.00000000000000E+00   0.00000000000000E+00   0.00000000000000E+00   0.00000000000000E+00
      1.25369403220720E-16   2.16385986989447E-34   1.25369403220720E-16  -1.20155778410399E-17   8.88785386277484E-03
      8.88785355618949E-03   0.00000000000000E+00   0.00000000000000E+00   1.47216448967488E-09  -1.06086840715327E-34
      1.47216448967488E-09   4.78891685048664E-18
      1.87757077255497E-01
      0.00000000000000E+00   3.17013404151833E-10   0.00000000000000E+00   0.00000000000000E+00  -1.52742249035740E-09
     -1.23817117621250E-34  -1.52742249035740E-09   5.01405676950306E-18   0.00000000000000E+00   0.00000000000000E+00
      0.00000000000000E+00   0.00000000000000E+00   0.00000000000000E+00   0.00000000000000E+00   0.00000000000000E+00
      2.20571181034915E-18   0.00000000000000E+00   0.00000000000000E+00   0.00000000000000E+00   0.00000000000000E+00
      1.13373784106997E-16   2.21640934052129E-34   1.13373784106997E-16  -1.20152649151948E-17   9.38785386277484E-03
      9.38785354467653E-03   0.00000000000000E+00   0.00000000000000E+00   1.52742237698361E-09  -9.78238164308800E-35
      1.52742237698361E-09   4.79549633534260E-18
      1.97757077255497E-01
      0.00000000000000E+00   3.28008626944441E-10   0.00000000000000E+00   0.00000000000000E+00  -1.58037479837110E-09