DF-ISE text

Info {
  version   = 1.0
  type      = xyplot
  datasets  = [
    "time"
    "source OuterVoltage" "source InnerVoltage" "source QuasiFermiPotential" "source DisplacementCurrent" "source eCurrent"
    "source hCurrent" "source TotalCurrent" "source Charge" "gate OuterVoltage" "gate InnerVoltage"
    "gate QuasiFermiPotential" "gate DisplacementCurrent" "gate eCurrent" "gate hCurrent" "gate TotalCurrent"
    "gate Charge" "substrate OuterVoltage" "substrate InnerVoltage" "substrate QuasiFermiPotential" "substrate DisplacementCurrent"
    "substrate eCurrent" "substrate hCurrent" "substrate TotalCurrent" "substrate Charge" "drain OuterVoltage"
    "drain InnerVoltage" "drain QuasiFermiPotential" "drain DisplacementCurrent" "drain eCurrent" "drain hCurrent"
    "drain TotalCurrent" "drain Charge" ]
  functions = [
    Time
    OuterVoltage InnerVoltage QuasiFermiPotential DisplacementCurrent eCurrent
    hCurrent TotalCurrent Charge OuterVoltage InnerVoltage
    QuasiFermiPotential DisplacementCurrent eCurrent hCurrent TotalCurrent
    Charge OuterVoltage InnerVoltage QuasiFermiPotential DisplacementCurrent
    eCurrent hCurrent TotalCurrent Charge OuterVoltage
    InnerVoltage QuasiFermiPotential DisplacementCurrent eCurrent hCurrent
    TotalCurrent Charge ]
}

Data {
      0.00000000000000E+00
      0.00000000000000E+00   0.00000000000000E+00   0.00000000000000E+00   0.00000000000000E+00   2.11176358084191E-22
      6.71906381133365E-34   2.11176358084863E-22   4.93362683243501E-18   0.00000000000000E+00   0.00000000000000E+00
      0.00000000000000E+00   0.00000000000000E+00   0.00000000000000E+00   0.00000000000000E+00   0.00000000000000E+00
      3.46983416309452E-18   0.00000000000000E+00   0.00000000000000E+00   0.00000000000000E+00   0.00000000000000E+00
      7.73933697849163E-22  -1.30270878696998E-33   7.73933697847860E-22  -1.25259248473624E-17   0.00000000000000E+00
      0.00000000000000E+00   0.00000000000000E+00   0.00000000000000E+00  -9.85110055933355E-22   6.30802405836613E-34
     -9.85110055932724E-22   4.12246385183290E-18
      0.00000000000000E+00
      0.00000000000000E+00   0.00000000000000E+00   0.00000000000000E+00   0.00000000000000E+00   2.24111392644519E-21
      6.43484018604922E-34   2.24111392644583E-21   4.93176745087775E-18   0.00000000000000E+00   0.00000000000000E+00
      0.00000000000000E+00   0.00000000000000E+00   0.00000000000000E+00   0.00000000000000E+00   0.00000000000000E+00
      3.46376049309213E-18   0.00000000000000E+00   0.00000000000000E+00   0.00000000000000E+00   0.00000000000000E+00
     -4.62390806385912E-21  -1.27591080571263E-33  -4.62390806386040E-21  -1.25166711562333E-17   0.00000000000000E+00
      0.00000000000000E+00   0.00000000000000E+00   0.00000000000000E+00   2.38279413741394E-21   6.32426787107705E-34
      2.38279413741457E-21   4.12114321226347E-18
      1.00000000000000E-03
      0.00000000000000E+00   2.80746703799524E-11   0.00000000000000E+00   0.00000000000000E+00  -1.30063800377302E-10
      6.38816011430634E-34  -1.30063800377302E-10   4.93144496311779E-18   0.00000000000000E+00   0.00000000000000E+00
      0.00000000000000E+00   0.00000000000000E+00   0.00000000000000E+00   0.00000000000000E+00   0.00000000000000E+00
      3.45365854965791E-18   0.00000000000000E+00   0.00000000000000E+00   0.00000000000000E+00   0.00000000000000E+00
      1.16900884816911E-21  -1.26595369682357E-33   1.16900884816784E-21  -1.25163294631980E-17   8.60000000000000E-04
      8.59999971568580E-04   0.00000000000000E+00   0.00000000000000E+00   1.30063800376133E-10   6.27137685392932E-34
      1.30063800376133E-10   4.13122595042225E-18
      2.08666666666667E-03
      0.00000000000000E+00   5.67812165422595E-11   0.00000000000000E+00   0.00000000000000E+00  -2.63038857091057E-10
      6.29993652655793E-34  -2.63038857091057E-10   4.93109459780358E-18   0.00000000000000E+00   0.00000000000000E+00
      0.00000000000000E+00   0.00000000000000E+00   0.00000000000000E+00   0.00000000000000E+00   0.00000000000000E+00
      3.44268369916049E-18   0.00000000000000E+00   0.00000000000000E+00   0.00000000000000E+00   0.00000000000000E+00
      5.81835953154290E-16  -1.21546890559716E-33   5.81835953154290E-16  -1.25159644115608E-17   1.79453333333333E-03
      1.79453327583076E-03   0.00000000000000E+00   0.00000000000000E+00   2.63038275255104E-10   5.85475252941372E-34
      2.63038275255104E-10   4.14218611459669E-18
      3.28200000000000E-03
      0.00000000000000E+00   8.62263115148203E-11   0.00000000000000E+00   0.00000000000000E+00  -3.99413129561375E-10
      6.50827181374607E-34  -3.99413129561375E-10   4.93070928088217E-18   0.00000000000000E+00   0.00000000000000E+00
      0.00000000000000E+00   0.00000000000000E+00   0.00000000000000E+00   0.00000000000000E+00   0.00000000000000E+00
      3.43061443703844E-18   0.00000000000000E+00   0.00000000000000E+00   0.00000000000000E+00   0.00000000000000E+00
      8.37430563823389E-16  -1.21931627193259E-33   8.37430563823389E-16  -1.25155702834696E-17   2.82252000000000E-03
      2.82251991267868E-03   0.00000000000000E+00   0.00000000000000E+00   3.99412292130812E-10   5.68489090557987E-34
      3.99412292130812E-10   4.15424656554903E-18
      4.59686666666667E-03
      0.00000000000000E+00   1.16147363610448E-10   0.00000000000000E+00   0.00000000000000E+00  -5.37965821361859E-10
      6.49313968663981E-34  -5.37965821361859E-10   4.93028553339167E-18   0.00000000000000E+00   0.00000000000000E+00
      0.00000000000000E+00   0.00000000000000E+00   0.00000000000000E+00   0.00000000000000E+00   0.00000000000000E+00
      3.41734190509668E-18   0.00000000000000E+00   0.00000000000000E+00   0.00000000000000E+00   0.00000000000000E+00
      6.90736258813889E-22  -1.17108239051169E-33   6.90736258812718E-22  -1.25151456065484E-17   3.95330533333333E-03
      3.95330521571146E-03   0.00000000000000E+00   0.00000000000000E+00   5.37965821361168E-10   5.21768421847706E-34
      5.37965821361168E-10   4.16751816806008E-18
      6.03445422222222E-03
      0.00000000000000E+00   1.46075128798015E-10   0.00000000000000E+00   0.00000000000000E+00  -6.76521399027781E-10
      6.38708969318422E-34  -6.76521399027781E-10   4.92982235505453E-18   0.00000000000000E+00   0.00000000000000E+00
      0.00000000000000E+00   0.00000000000000E+00   0.00000000000000E+00   0.00000000000000E+00   0.00000000000000E+00
      3.40283490648992E-18   0.00000000000000E+00   0.00000000000000E+00   0.00000000000000E+00   0.00000000000000E+00
     -2.77457017375332E-20  -1.17453953808419E-33  -2.77457017375344E-20  -1.25146917584269E-17   5.18963063111111E-03
      5.18963048318200E-03   0.00000000000000E+00   0.00000000000000E+00   6.76521399055527E-10   5.35830568765765E-34
      6.76521399055527E-10   4.18203449688242E-18
      7.60621661629630E-03
      0.00000000000000E+00   1.75701522753987E-10   0.00000000000000E+00   0.00000000000000E+00  -8.13651588332785E-10
      6.65848157714867E-34  -8.13651588332785E-10   4.92931608575038E-18   0.00000000000000E+00   0.00000000000000E+00
      0.00000000000000E+00   0.00000000000000E+00   0.00000000000000E+00   0.00000000000000E+00   0.00000000000000E+00
      3.38697896172775E-18   0.00000000000000E+00   0.00000000000000E+00   0.00000000000000E+00   0.00000000000000E+00
      4.24185793299424E-21  -1.15823135835173E-33   4.24185793299308E-21  -1.25142078536561E-17   6.54134629001482E-03
      6.54134611208370E-03   0.00000000000000E+00   0.00000000000000E+00   8.13651588328544E-10   4.92383200636861E-34
      8.13651588328544E-10   4.19791280617800E-18
      9.32467683381729E-03
      0.00000000000000E+00   2.04698515679835E-10   0.00000000000000E+00   0.00000000000000E+00  -9.47838069725519E-10
      6.42162446543807E-34  -9.47838069725519E-10   4.92876272665762E-18   0.00000000000000E+00   0.00000000000000E+00
      0.00000000000000E+00   0.00000000000000E+00   0.00000000000000E+00   0.00000000000000E+00   0.00000000000000E+00
      3.36964902183364E-18   0.00000000000000E+00   0.00000000000000E+00   0.00000000000000E+00   0.00000000000000E+00
      1.36683359985992E-21  -1.11935364555085E-33   1.36683359985880E-21  -1.25136932244079E-17   8.01922207708287E-03
      8.01922186978704E-03   0.00000000000000E+00   0.00000000000000E+00   9.47838069724152E-10   4.77191199007040E-34
      9.47838069724152E-10   4.21528147591659E-18
      1.12035266716402E-02
      0.00000000000000E+00   2.32725882649676E-10   0.00000000000000E+00   0.00000000000000E+00  -1.07750835573603E-09
      6.82351454584671E-34  -1.07750835573603E-09   4.92815790893577E-18   0.00000000000000E+00   0.00000000000000E+00
      0.00000000000000E+00   0.00000000000000E+00   0.00000000000000E+00   0.00000000000000E+00   0.00000000000000E+00
      3.35070849598403E-18   0.00000000000000E+00   0.00000000000000E+00   0.00000000000000E+00   0.00000000000000E+00
     -8.76716060525901E-21  -1.14245516069406E-33  -8.76716060526015E-21  -1.25131474826521E-17   9.63503293761060E-03
      9.63503270193194E-03   0.00000000000000E+00   0.00000000000000E+00   1.07750835574479E-09   4.60103706109390E-34
      1.07750835574479E-09   4.23428107773235E-18
      1.32577358276600E-02
      0.00000000000000E+00   2.59441585436027E-10   0.00000000000000E+00   0.00000000000000E+00  -1.20108436753229E-09
      6.33891479896232E-34  -1.20108436753229E-09   4.92749685948796E-18   0.00000000000000E+00   0.00000000000000E+00
      0.00000000000000E+00   0.00000000000000E+00   0.00000000000000E+00   0.00000000000000E+00   0.00000000000000E+00
      3.33000819006588E-18   0.00000000000000E+00   0.00000000000000E+00   0.00000000000000E+00   0.00000000000000E+00
     -3.00864310225862E-20  -1.03356832173331E-33  -3.00864310225873E-20  -1.25125705930859E-17   1.14016528117876E-02
      1.14016525490544E-02   0.00000000000000E+00   0.00000000000000E+00   1.20108436756238E-09   3.99676841837075E-34
      1.20108436756238E-09   4.25506554353211E-18
      1.55036711715749E-02
      0.00000000000000E+00   2.84515357104789E-10   0.00000000000000E+00   0.00000000000000E+00  -1.31704600232902E-09
      6.64326621993941E-34  -1.31704600232902E-09   4.92677436350503E-18   0.00000000000000E+00   0.00000000000000E+00
      0.00000000000000E+00   0.00000000000000E+00   0.00000000000000E+00   0.00000000000000E+00   0.00000000000000E+00
      3.30738514651585E-18   0.00000000000000E+00   0.00000000000000E+00   0.00000000000000E+00   0.00000000000000E+00
     -2.55462849359899E-20  -1.05695357861463E-33  -2.55462849359910E-20  -1.25119629566765E-17   1.33331572075544E-02
      1.33331569194295E-02   0.00000000000000E+00   0.00000000000000E+00   1.31704600235456E-09   3.92626956620683E-34
      1.31704600235456E-09   4.27780344665565E-18
      1.79592271475886E-02
      0.00000000000000E+00   3.07645229012267E-10   0.00000000000000E+00   0.00000000000000E+00  -1.42400776967487E-09
      6.25166495926800E-34  -1.42400776967487E-09   4.92598472344470E-18   0.00000000000000E+00   0.00000000000000E+00
      0.00000000000000E+00   0.00000000000000E+00   0.00000000000000E+00   0.00000000000000E+00   0.00000000000000E+00
      3.28266137540583E-18   0.00000000000000E+00   0.00000000000000E+00   0.00000000000000E+00   0.00000000000000E+00
      1.92568029106026E-20  -1.01018357053895E-33   1.92568029106015E-20  -1.25113255043830E-17   1.54449353469262E-02
      1.54449350353781E-02   0.00000000000000E+00   0.00000000000000E+00   1.42400776965561E-09   3.85017074612150E-34
      1.42400776965561E-09   4.30267940553247E-18
      2.06439683480302E-02
      0.00000000000000E+00   3.28576176972053E-10   0.00000000000000E+00   0.00000000000000E+00  -1.52080556506396E-09
      6.78520602814922E-34  -1.52080556506396E-09   4.92512171414331E-18   0.00000000000000E+00   0.00000000000000E+00
      0.00000000000000E+00   0.00000000000000E+00   0.00000000000000E+00   0.00000000000000E+00   0.00000000000000E+00
      3.25564246706596E-18   0.00000000000000E+00   0.00000000000000E+00   0.00000000000000E+00   0.00000000000000E+00
     -3.42573232899858E-20  -1.02987638745052E-33  -3.42573232899868E-20  -1.25106598030237E-17   1.77538127793060E-02
      1.77538124465616E-02   0.00000000000000E+00   0.00000000000000E+00   1.52080556509822E-09   3.51355784635599E-34
      1.52080556509822E-09   4.32989562181442E-18
      2.35792853938464E-02
      0.00000000000000E+00   3.47120985177392E-10   0.00000000000000E+00   0.00000000000000E+00  -1.60659301155703E-09
      6.41733363499519E-34  -1.60659301155703E-09   4.92417853362054E-18   0.00000000000000E+00   0.00000000000000E+00
      0.00000000000000E+00   0.00000000000000E+00   0.00000000000000E+00   0.00000000000000E+00   0.00000000000000E+00
      3.22611607333258E-18   0.00000000000000E+00   0.00000000000000E+00   0.00000000000000E+00   0.00000000000000E+00
     -2.05682286576752E-21  -9.62338384850774E-34  -2.05682286576848E-21  -1.25099681720147E-17   2.02781854387079E-02
      2.02781850871840E-02   0.00000000000000E+00   0.00000000000000E+00   1.60659301155908E-09   3.20605021351255E-34
      1.60659301155908E-09   4.35967356506156E-18
      2.67885653639387E-02
      0.00000000000000E+00   3.63180723364514E-10   0.00000000000000E+00   0.00000000000000E+00  -1.68093645479973E-09
      6.27483556365518E-34  -1.68093645479973E-09   4.92314774916661E-18   0.00000000000000E+00   0.00000000000000E+00
      0.00000000000000E+00   0.00000000000000E+00   0.00000000000000E+00   0.00000000000000E+00   0.00000000000000E+00
      3.19385024507068E-18   0.00000000000000E+00   0.00000000000000E+00   0.00000000000000E+00   0.00000000000000E+00
     -8.48428917076534E-21  -9.07586652346517E-34  -8.48428917076625E-21  -1.25092538107523E-17   2.30381662129873E-02
      2.30381658452017E-02   0.00000000000000E+00   0.00000000000000E+00   1.68093645480822E-09   2.80103095981000E-34
      1.68093645480822E-09   4.39225581651498E-18
      3.02973781312396E-02
      0.00000000000000E+00   3.76765440527327E-10   0.00000000000000E+00   0.00000000000000E+00  -1.74390966839658E-09
      6.25457754654146E-34  -1.74390966839658E-09   4.92202123822665E-18   0.00000000000000E+00   0.00000000000000E+00
      0.00000000000000E+00   0.00000000000000E+00   0.00000000000000E+00   0.00000000000000E+00   0.00000000000000E+00
      3.15859160719523E-18   0.00000000000000E+00   0.00000000000000E+00   0.00000000000000E+00   0.00000000000000E+00
     -4.85313191724093E-20  -8.82359090133186E-34  -4.85313191724102E-20  -1.25085209319466E-17   2.60557451928661E-02
      2.60557448113270E-02   0.00000000000000E+00   0.00000000000000E+00   1.74390966844511E-09   2.56901335479040E-34
      1.74390966844511E-09   4.42790808652467E-18
      3.41336800901553E-02
      0.00000000000000E+00   3.88009342892199E-10   0.00000000000000E+00   0.00000000000000E+00  -1.79616311085892E-09
      6.22218970159229E-34  -1.79616311085892E-09   4.92079012361449E-18   0.00000000000000E+00   0.00000000000000E+00
      0.00000000000000E+00   0.00000000000000E+00   0.00000000000000E+00   0.00000000000000E+00   0.00000000000000E+00
      3.12006336025530E-18   0.00000000000000E+00   0.00000000000000E+00   0.00000000000000E+00   0.00000000000000E+00
     -1.33862003945356E-20  -8.54988004401212E-34  -1.33862003945365E-20  -1.25077749045795E-17   2.93549648775336E-02
      2.93549644846143E-02   0.00000000000000E+00   0.00000000000000E+00   1.79616311087231E-09   2.32769034241983E-34
      1.79616311087231E-09   4.46692142070971E-18
      3.83280368985698E-02
      0.00000000000000E+00   3.97177859221821E-10   0.00000000000000E+00   0.00000000000000E+00  -1.83895494542144E-09
      6.15824769246336E-34  -1.83895494542144E-09   4.91944470256878E-18   0.00000000000000E+00   0.00000000000000E+00
      0.00000000000000E+00   0.00000000000000E+00   0.00000000000000E+00   0.00000000000000E+00   0.00000000000000E+00
      3.07796308633224E-18   0.00000000000000E+00   0.00000000000000E+00   0.00000000000000E+00   0.00000000000000E+00
      2.68524580682690E-20  -8.20834429852615E-34   2.68524580682681E-20  -1.25070223993861E-17   3.29621117327701E-02
      3.29621113305771E-02   0.00000000000000E+00   0.00000000000000E+00   1.83895494539459E-09   2.05009660606279E-34
      1.83895494539459E-09   4.50961461048507E-18
      4.29138670091030E-02
      0.00000000000000E+00   4.04660187909702E-10   0.00000000000000E+00   0.00000000000000E+00  -1.87411300666636E-09
      6.25579965078701E-34  -1.87411300666636E-09   4.91797436919087E-18   0.00000000000000E+00   0.00000000000000E+00
      0.00000000000000E+00   0.00000000000000E+00   0.00000000000000E+00   0.00000000000000E+00   0.00000000000000E+00
      3.03196033959301E-18   0.00000000000000E+00   0.00000000000000E+00   0.00000000000000E+00   0.00000000000000E+00
      9.69983281940243E-21  -7.97987522654876E-34   9.69983281940163E-21  -1.25062715339037E-17   3.69059256278286E-02
      3.69059252180759E-02   0.00000000000000E+00   0.00000000000000E+00   1.87411300665666E-09   1.72407557576174E-34
      1.87411300665666E-09   4.55633682511983E-18
      4.79277079299527E-02
      0.00000000000000E+00   4.10941495831000E-10   0.00000000000000E+00   0.00000000000000E+00  -1.90390188757419E-09
      6.30811140825905E-34  -1.90390188757419E-09   4.91636752975194E-18   0.00000000000000E+00   0.00000000000000E+00
      0.00000000000000E+00   0.00000000000000E+00   0.00000000000000E+00   0.00000000000000E+00   0.00000000000000E+00
      2.98169399873565E-18   0.00000000000000E+00   0.00000000000000E+00   0.00000000000000E+00   0.00000000000000E+00
      1.74507669507811E-20  -7.87134170894866E-34   1.74507669507803E-20  -1.25055320093720E-17   4.12178288197593E-02
      4.12178284036728E-02   0.00000000000000E+00   0.00000000000000E+00   1.90390188755674E-09   1.56323030068961E-34
      1.90390188755674E-09   4.60747048088438E-18
      5.34095073367482E-02
      0.00000000000000E+00   4.16555706777142E-10   0.00000000000000E+00   0.00000000000000E+00  -1.93080397892108E-09
      6.20158062182794E-34  -1.93080397892108E-09   4.91461151064692E-18   0.00000000000000E+00   0.00000000000000E+00
      0.00000000000000E+00   0.00000000000000E+00   0.00000000000000E+00   0.00000000000000E+00   0.00000000000000E+00
      2.92676937276750E-18   0.00000000000000E+00   0.00000000000000E+00   0.00000000000000E+00   0.00000000000000E+00
     -5.04701912778248E-20  -7.59533062865621E-34  -5.04701912778256E-20  -1.25048152550346E-17   4.59321763096035E-02
      4.59321758878716E-02   0.00000000000000E+00   0.00000000000000E+00   1.93080397897155E-09   1.39375000682828E-34
      1.93080397897155E-09   4.66343437162022E-18
      5.94029413548448E-02
      0.00000000000000E+00   4.22023467498052E-10   0.00000000000000E+00   0.00000000000000E+00  -1.95723622532947E-09
      6.27116752684213E-34  -1.95723622532947E-09   4.91269245897850E-18   0.00000000000000E+00   0.00000000000000E+00
      0.00000000000000E+00   0.00000000000000E+00   0.00000000000000E+00   0.00000000000000E+00   0.00000000000000E+00
      2.86675503966631E-18   0.00000000000000E+00   0.00000000000000E+00   0.00000000000000E+00   0.00000000000000E+00
      1.92342966796196E-20  -7.37935483298401E-34   1.92342966796189E-20  -1.25041345749296E-17   5.10865295651665E-02
      5.10865291379540E-02   0.00000000000000E+00   0.00000000000000E+00   1.95723622531023E-09   1.10818730614188E-34
      1.95723622531023E-09   4.72468707628482E-18
      6.59158063211763E-02
      0.00000000000000E+00   4.27735847829085E-10   0.00000000000000E+00   0.00000000000000E+00  -1.98499828925556E-09
      6.30870641434646E-34  -1.98499828925556E-09   4.91060802093326E-18   0.00000000000000E+00   0.00000000000000E+00
      0.00000000000000E+00   0.00000000000000E+00   0.00000000000000E+00   0.00000000000000E+00   0.00000000000000E+00
      2.80157914080519E-18   0.00000000000000E+00   0.00000000000000E+00   0.00000000000000E+00   0.00000000000000E+00
      1.23523497102565E-20  -7.22497429958758E-34   1.23523497102558E-20  -1.25035088029122E-17   5.66875934362116E-02
      5.66875930032892E-02   0.00000000000000E+00   0.00000000000000E+00   1.98499828924321E-09   9.16267885241116E-35
      1.98499828924321E-09   4.79132164117377E-18
      7.29931195845899E-02
      0.00000000000000E+00   4.33951762297490E-10   0.00000000000000E+00   0.00000000000000E+00  -2.01526937251764E-09
      6.62763107571032E-34  -2.01526937251764E-09   4.90834393739418E-18   0.00000000000000E+00   0.00000000000000E+00
      0.00000000000000E+00   0.00000000000000E+00   0.00000000000000E+00   0.00000000000000E+00   0.00000000000000E+00
      2.73079735634213E-18   0.00000000000000E+00   0.00000000000000E+00   0.00000000000000E+00   0.00000000000000E+00
     -1.42194765627405E-20  -7.34502726651859E-34  -1.42194765627413E-20  -1.25029538572662E-17   6.27740828427473E-02
      6.27740824036251E-02   0.00000000000000E+00   0.00000000000000E+00   2.01526937253187E-09   7.17396190808276E-35
      2.01526937253187E-09   4.86381256352987E-18
      8.06837999974994E-02
      0.00000000000000E+00   4.40801481287732E-10   0.00000000000000E+00   0.00000000000000E+00  -2.04864918990729E-09
      6.23193763580945E-34  -2.04864918990729E-09   4.90588471959946E-18   0.00000000000000E+00   0.00000000000000E+00
      0.00000000000000E+00   0.00000000000000E+00   0.00000000000000E+00   0.00000000000000E+00   0.00000000000000E+00
      2.65392687120889E-18   0.00000000000000E+00   0.00000000000000E+00   0.00000000000000E+00   0.00000000000000E+00
      5.05149019064347E-21  -6.83164620334177E-34   5.05149019064278E-21  -1.25024874925753E-17   6.93880679978495E-02
      6.93880675519075E-02   0.00000000000000E+00   0.00000000000000E+00   2.04864918990224E-09   5.99708567532319E-35
      2.04864918990224E-09   4.94267590176692E-18
      8.90410060461943E-02
      0.00000000000000E+00   4.48366584834369E-10   0.00000000000000E+00   0.00000000000000E+00  -2.08553825917069E-09
      6.31932821760893E-34  -2.08553825917069E-09   4.90321354298269E-18   0.00000000000000E+00   0.00000000000000E+00
      0.00000000000000E+00   0.00000000000000E+00   0.00000000000000E+00   0.00000000000000E+00   0.00000000000000E+00
      2.57044305268395E-18   0.00000000000000E+00   0.00000000000000E+00   0.00000000000000E+00   0.00000000000000E+00
     -8.21552174818075E-21  -6.78150520865960E-34  -8.21552174818143E-21  -1.25021294068792E-17   7.65752651997271E-02
      7.65752647462640E-02   0.00000000000000E+00   0.00000000000000E+00   2.08553825917891E-09   4.62176991050673E-35
      2.08553825917891E-09   5.02847281121252E-18
      9.81225032857761E-02
      0.00000000000000E+00   4.56690052061353E-10   0.00000000000000E+00   0.00000000000000E+00  -2.12615696180698E-09
      6.35800142265945E-34  -2.12615696180698E-09   4.90031213871328E-18   0.00000000000000E+00   0.00000000000000E+00
      0.00000000000000E+00   0.00000000000000E+00   0.00000000000000E+00   0.00000000000000E+00   0.00000000000000E+00
      2.47977589949331E-18   0.00000000000000E+00   0.00000000000000E+00   0.00000000000000E+00   0.00000000000000E+00
      4.58168389297541E-21  -6.72737040561090E-34   4.58168389297473E-21  -1.25019013978706E-17   8.43853528257675E-02
      8.43853523640315E-02   0.00000000000000E+00   0.00000000000000E+00   2.12615696180239E-09   3.69368982951447E-35
      2.12615696180239E-09   5.12181335966398E-18
      1.07991063619455E-01
      0.00000000000000E+00   4.65800775300741E-10   0.00000000000000E+00   0.00000000000000E+00  -2.17066850621270E-09
      6.62178281752781E-34  -2.17066850621270E-09   4.89716066610910E-18   0.00000000000000E+00   0.00000000000000E+00
      0.00000000000000E+00   0.00000000000000E+00   0.00000000000000E+00   0.00000000000000E+00   0.00000000000000E+00
      2.38130607177800E-18   0.00000000000000E+00   0.00000000000000E+00   0.00000000000000E+00   0.00000000000000E+00
     -1.57591177959153E-20  -6.89668807013926E-34  -1.57591177959160E-20  -1.25018273711803E-17   9.28723147127314E-02
      9.28723142419393E-02   0.00000000000000E+00   0.00000000000000E+00   2.17066850622846E-09   2.74905252611451E-35
      2.17066850622846E-09   5.22336063329326E-18
      1.17991063619455E-01
      0.00000000000000E+00   4.75097731018368E-10   0.00000000000000E+00   0.00000000000000E+00  -2.21615818730636E-09
      6.14122888785223E-34  -2.21615818730636E-09   4.89396856936036E-18   0.00000000000000E+00   0.00000000000000E+00
      0.00000000000000E+00   0.00000000000000E+00   0.00000000000000E+00   0.00000000000000E+00   0.00000000000000E+00
      2.28157721781057E-18   0.00000000000000E+00   0.00000000000000E+00   0.00000000000000E+00   0.00000000000000E+00
     -4.68654330125781E-21  -6.34320196583742E-34  -4.68654330125845E-21  -1.25019202436604E-17   1.01472314712731E-01
      1.01472314232708E-01   0.00000000000000E+00   0.00000000000000E+00   2.21615818731105E-09   2.01973077985189E-35
      2.21615818731105E-09   5.32637445648953E-18
      1.27991063619455E-01
      0.00000000000000E+00   4.84484989492752E-10   0.00000000000000E+00   0.00000000000000E+00  -2.26215977588385E-09
      6.34841741286619E-34  -2.26215977588385E-09   4.89077771461739E-18   0.00000000000000E+00   0.00000000000000E+00
      0.00000000000000E+00   0.00000000000000E+00   0.00000000000000E+00   0.00000000000000E+00   0.00000000000000E+00
      2.18189563814901E-18   0.00000000000000E+00   0.00000000000000E+00   0.00000000000000E+00   0.00000000000000E+00
      1.72148779320504E-21  -6.49795178156231E-34   1.72148779320439E-21  -1.25021665165229E-17   1.10072314712731E-01
      1.10072314223403E-01   0.00000000000000E+00   0.00000000000000E+00   2.26215977588213E-09   1.49534368696128E-35
      2.26215977588213E-09   5.42949316375652E-18
      1.37991063619455E-01
      0.00000000000000E+00   4.93984542061475E-10   0.00000000000000E+00   0.00000000000000E+00  -2.30877573622447E-09
      5.97519435537558E-34  -2.30877573622447E-09   4.88758800200618E-18   0.00000000000000E+00   0.00000000000000E+00
      0.00000000000000E+00   0.00000000000000E+00   0.00000000000000E+00   0.00000000000000E+00   0.00000000000000E+00
      2.08225650650279E-18   0.00000000000000E+00   0.00000000000000E+00   0.00000000000000E+00   0.00000000000000E+00
      1.74693359531641E-20  -6.08579315400757E-34   1.74693359531635E-20  -1.25025522388116E-17   1.18672314712731E-01
      1.18672314213997E-01   0.00000000000000E+00   0.00000000000000E+00   2.30877573620700E-09   1.10598798631991E-35
      2.30877573620700E-09   5.53270773030259E-18
      1.47991063619455E-01
      0.00000000000000E+00   5.03607722702153E-10   0.00000000000000E+00   0.00000000000000E+00  -2.35605817607918E-09
      6.08829887832244E-34  -2.35605817607918E-09   4.88439934886654E-18   0.00000000000000E+00   0.00000000000000E+00
      0.00000000000000E+00   0.00000000000000E+00   0.00000000000000E+00   0.00000000000000E+00   0.00000000000000E+00
      1.98265570324385E-18   0.00000000000000E+00   0.00000000000000E+00   0.00000000000000E+00   0.00000000000000E+00
      5.09766176413639E-22  -6.17201865332351E-34   5.09766176413022E-22  -1.25030650278479E-17   1.27272314712731E-01
      1.27272314204465E-01   0.00000000000000E+00   0.00000000000000E+00   2.35605817607867E-09   8.37197750010625E-36
      2.35605817607867E-09   5.63600997573751E-18
      1.57991063619455E-01
      0.00000000000000E+00   5.13357982754635E-10   0.00000000000000E+00   0.00000000000000E+00  -2.40402244083360E-09
      6.22790806834567E-34  -2.40402244083360E-09   4.88121168268474E-18   0.00000000000000E+00   0.00000000000000E+00
      0.00000000000000E+00   0.00000000000000E+00   0.00000000000000E+00   0.00000000000000E+00   0.00000000000000E+00
      1.88308964799700E-18   0.00000000000000E+00   0.00000000000000E+00   0.00000000000000E+00   0.00000000000000E+00
     -1.21611516741776E-21  -6.29223770408435E-34  -1.21611516741839E-21  -1.25036937915286E-17   1.35872314712731E-01
      1.35872314194796E-01   0.00000000000000E+00   0.00000000000000E+00   2.40402244083482E-09   6.43296357386801E-36
      2.40402244083482E-09   5.73939246084686E-18
      1.67991063619455E-01
      0.00000000000000E+00   5.23234627063801E-10   0.00000000000000E+00   0.00000000000000E+00  -2.45266419497924E-09
      5.80733803789305E-34  -2.45266419497924E-09   4.87802493760457E-18   0.00000000000000E+00   0.00000000000000E+00
      0.00000000000000E+00   0.00000000000000E+00   0.00000000000000E+00   0.00000000000000E+00   0.00000000000000E+00
      1.78355516928611E-18   0.00000000000000E+00   0.00000000000000E+00   0.00000000000000E+00   0.00000000000000E+00
     -4.26726426458982E-20  -5.85595775573780E-34  -4.26726426458988E-20  -1.25044285109713E-17   1.44472314712731E-01
      1.44472314184994E-01   0.00000000000000E+00   0.00000000000000E+00   2.45266419502191E-09   4.86197178447607E-36
      2.45266419502191E-09   5.84284840408063E-18
      1.77991063619455E-01
      0.00000000000000E+00   5.33235496014407E-10   0.00000000000000E+00   0.00000000000000E+00  -2.50197301013433E-09
      5.81963609244660E-34  -2.50197301013433E-09   4.87483905344747E-18   0.00000000000000E+00   0.00000000000000E+00
      0.00000000000000E+00   0.00000000000000E+00   0.00000000000000E+00   0.00000000000000E+00   0.00000000000000E+00
      1.68404944235431E-18   0.00000000000000E+00   0.00000000000000E+00   0.00000000000000E+00   0.00000000000000E+00
      3.16795253357188E-20  -5.85344046046256E-34   3.16795253357182E-20  -1.25052601125158E-17   1.53072314712731E-01
      1.53072314175065E-01   0.00000000000000E+00   0.00000000000000E+00   2.50197301010265E-09   3.38043680159596E-36
      2.50197301010265E-09   5.94637161671404E-18
      1.87991063619455E-01
      0.00000000000000E+00   5.43358822648528E-10   0.00000000000000E+00   0.00000000000000E+00  -2.55194121480069E-09