DF-ISE text

Info {
  version   = 1.0
  type      = xyplot
  datasets  = [
    "time"
    "source OuterVoltage" "source InnerVoltage" "source QuasiFermiPotential" "source DisplacementCurrent" "source eCurrent"
    "source hCurrent" "source TotalCurrent" "source Charge" "gate OuterVoltage" "gate InnerVoltage"
    "gate QuasiFermiPotential" "gate DisplacementCurrent" "gate eCurrent" "gate hCurrent" "gate TotalCurrent"
    "gate Charge" "substrate OuterVoltage" "substrate InnerVoltage" "substrate QuasiFermiPotential" "substrate DisplacementCurrent"
    "substrate eCurrent" "substrate hCurrent" "substrate TotalCurrent" "substrate Charge" "drain OuterVoltage"
    "drain InnerVoltage" "drain QuasiFermiPotential" "drain DisplacementCurrent" "drain eCurrent" "drain hCurrent"
    "drain TotalCurrent" "drain Charge" ]
  functions = [
    Time
    OuterVoltage InnerVoltage QuasiFermiPotential DisplacementCurrent eCurrent
    hCurrent TotalCurrent Charge OuterVoltage InnerVoltage
    QuasiFermiPotential DisplacementCurrent eCurrent hCurrent TotalCurrent
    Charge OuterVoltage InnerVoltage QuasiFermiPotential DisplacementCurrent
    eCurrent hCurrent TotalCurrent Charge OuterVoltage
    InnerVoltage QuasiFermiPotential DisplacementCurrent eCurrent hCurrent
    TotalCurrent Charge ]
}

Data {
      0.00000000000000E+00
      0.00000000000000E+00   0.00000000000000E+00   0.00000000000000E+00   0.00000000000000E+00  -6.66559298891220E-22
      7.19404293534894E-34  -6.66559298890500E-22   5.25272013885368E-18   0.00000000000000E+00   0.00000000000000E+00
      0.00000000000000E+00   0.00000000000000E+00   0.00000000000000E+00   0.00000000000000E+00   0.00000000000000E+00
      3.59602711872567E-18   0.00000000000000E+00   0.00000000000000E+00   0.00000000000000E+00   0.00000000000000E+00
     -4.83034830217415E-22  -1.43490778334130E-33  -4.83034830218850E-22  -1.32739713923513E-17   0.00000000000000E+00
      0.00000000000000E+00   0.00000000000000E+00   0.00000000000000E+00   1.14959412910863E-21   7.15503489806405E-34
      1.14959412910935E-21   4.42522413477189E-18
      0.00000000000000E+00
      0.00000000000000E+00   0.00000000000000E+00   0.00000000000000E+00   0.00000000000000E+00  -1.95590353712678E-20
      7.08306464886178E-34  -1.95590353712671E-20   5.25058450726415E-18   0.00000000000000E+00   0.00000000000000E+00
      0.00000000000000E+00   0.00000000000000E+00   0.00000000000000E+00   0.00000000000000E+00   0.00000000000000E+00
      3.58960174965546E-18   0.00000000000000E+00   0.00000000000000E+00   0.00000000000000E+00   0.00000000000000E+00
      1.31362767588726E-20  -1.41019554526960E-33   1.31362767588712E-20  -1.32638777518943E-17   0.00000000000000E+00
      0.00000000000000E+00   0.00000000000000E+00   0.00000000000000E+00   6.42275861239514E-21   7.01889080383420E-34
      6.42275861239584E-21   4.42369149497474E-18
      1.00000000000000E-03
      0.00000000000000E+00   2.31951284283529E-11   0.00000000000000E+00   0.00000000000000E+00  -1.18033645622114E-10
      7.14584516373985E-34  -1.18033645622114E-10   5.25020218423916E-18   0.00000000000000E+00   0.00000000000000E+00
      0.00000000000000E+00   0.00000000000000E+00   0.00000000000000E+00   0.00000000000000E+00   0.00000000000000E+00
      3.57925102758625E-18   0.00000000000000E+00   0.00000000000000E+00   0.00000000000000E+00   0.00000000000000E+00
      1.41865520578600E-20  -1.39736470427330E-33   1.41865520578586E-20  -1.32635587038349E-17   8.60000000000000E-04
      8.59999976538075E-04   0.00000000000000E+00   0.00000000000000E+00   1.18033645607928E-10   6.82780187899310E-34
      1.18033645607928E-10   4.43410549200950E-18
      2.08666666666667E-03
      0.00000000000000E+00   4.69104031250347E-11   0.00000000000000E+00   0.00000000000000E+00  -2.38704127473760E-10
      7.47561257669416E-34  -2.38704127473760E-10   5.24978680113900E-18   0.00000000000000E+00   0.00000000000000E+00
      0.00000000000000E+00   0.00000000000000E+00   0.00000000000000E+00   0.00000000000000E+00   0.00000000000000E+00
      3.56800569993827E-18   0.00000000000000E+00   0.00000000000000E+00   0.00000000000000E+00   0.00000000000000E+00
      5.60098545480515E-16  -1.38037599022302E-33   5.60098545480515E-16  -1.32632180866405E-17   1.79453333333333E-03
      1.79453328588359E-03   0.00000000000000E+00   0.00000000000000E+00   2.38703567375215E-10   6.32814732553600E-34
      2.38703567375215E-10   4.44542558556325E-18
      3.28200000000000E-03
      0.00000000000000E+00   7.12328035163078E-11   0.00000000000000E+00   0.00000000000000E+00  -3.62449581086670E-10
      7.10787401671845E-34  -3.62449581086670E-10   5.24932996846066E-18   0.00000000000000E+00   0.00000000000000E+00
      0.00000000000000E+00   0.00000000000000E+00   0.00000000000000E+00   0.00000000000000E+00   0.00000000000000E+00
      3.55563875038440E-18   0.00000000000000E+00   0.00000000000000E+00   0.00000000000000E+00   0.00000000000000E+00
      3.56347947296498E-20  -1.31235409408890E-33   3.56347947296485E-20  -1.32628506323934E-17   2.82252000000000E-03
      2.82251992794883E-03   0.00000000000000E+00   0.00000000000000E+00   3.62449581051035E-10   6.01566692417053E-34
      3.62449581051035E-10   4.45788191354837E-18
      4.58889777777778E-03
      0.00000000000000E+00   9.58016905809770E-11   0.00000000000000E+00   0.00000000000000E+00  -4.87433244086902E-10
      7.36655308765812E-34  -4.87433244086902E-10   5.24883060278688E-18   0.00000000000000E+00   0.00000000000000E+00
      0.00000000000000E+00   0.00000000000000E+00   0.00000000000000E+00   0.00000000000000E+00   0.00000000000000E+00
      3.54212098425042E-18   0.00000000000000E+00   0.00000000000000E+00   0.00000000000000E+00   0.00000000000000E+00
     -1.80945069523615E-20  -1.34382170012266E-33  -1.80945069523628E-20  -1.32624574258777E-17   3.94645208888889E-03
      3.94645199198715E-03   0.00000000000000E+00   0.00000000000000E+00   4.87433244104996E-10   6.07166391356845E-34
      4.87433244104996E-10   4.47150583884034E-18
      6.01777268148148E-03
      0.00000000000000E+00   1.20385621321575E-10   0.00000000000000E+00   0.00000000000000E+00  -6.12475911228924E-10
      6.93553626657901E-34  -6.12475911228924E-10   5.24828475249170E-18   0.00000000000000E+00   0.00000000000000E+00
      0.00000000000000E+00   0.00000000000000E+00   0.00000000000000E+00   0.00000000000000E+00   0.00000000000000E+00
      3.52734558841926E-18   0.00000000000000E+00   0.00000000000000E+00   0.00000000000000E+00   0.00000000000000E+00
      2.20507439097282E-21  -1.27501297389750E-33   2.20507439097155E-21  -1.32620375809308E-17   5.17528450607408E-03
      5.17528438430678E-03   0.00000000000000E+00   0.00000000000000E+00   6.12475911226720E-10   5.81459347239600E-34
      6.12475911226720E-10   4.48640724001981E-18
      7.58000924286420E-03
      0.00000000000000E+00   1.44733275735411E-10   0.00000000000000E+00   0.00000000000000E+00  -7.36298323122722E-10
      7.26262699427846E-34  -7.36298323122722E-10   5.24768809986500E-18   0.00000000000000E+00   0.00000000000000E+00
      0.00000000000000E+00   0.00000000000000E+00   0.00000000000000E+00   0.00000000000000E+00   0.00000000000000E+00
      3.51119587633044E-18   0.00000000000000E+00   0.00000000000000E+00   0.00000000000000E+00   0.00000000000000E+00
     -1.49910720130413E-20  -1.27309549715793E-33  -1.49910720130426E-20  -1.32615903820878E-17   6.51880794886321E-03
      6.51880780246963E-03   0.00000000000000E+00   0.00000000000000E+00   7.36298323137713E-10   5.46832797730086E-34
      7.36298323137713E-10   4.50270640589228E-18
      9.28805454997597E-03
      0.00000000000000E+00   1.68576838668999E-10   0.00000000000000E+00   0.00000000000000E+00  -8.57538912351390E-10
      6.59628771712018E-34  -8.57538912351390E-10   5.24703592727050E-18   0.00000000000000E+00   0.00000000000000E+00
      0.00000000000000E+00   0.00000000000000E+00   0.00000000000000E+00   0.00000000000000E+00   0.00000000000000E+00
      3.49354437921881E-18   0.00000000000000E+00   0.00000000000000E+00   0.00000000000000E+00   0.00000000000000E+00
     -1.66401791851704E-20  -1.16449189273977E-33  -1.66401791851716E-20  -1.32611153376065E-17   7.98772691297934E-03
      7.98772674246966E-03   0.00000000000000E+00   0.00000000000000E+00   8.57538912368030E-10   5.04863121027756E-34
      8.57538912368030E-10   4.52053503111716E-18
      1.11555174190848E-02
      0.00000000000000E+00   1.91638200157863E-10   0.00000000000000E+00   0.00000000000000E+00  -9.74785436248164E-10
      7.11906270909743E-34  -9.74785436248164E-10   5.24632308016370E-18   0.00000000000000E+00   0.00000000000000E+00
      0.00000000000000E+00   0.00000000000000E+00   0.00000000000000E+00   0.00000000000000E+00   0.00000000000000E+00
      3.47425185390732E-18   0.00000000000000E+00   0.00000000000000E+00   0.00000000000000E+00   0.00000000000000E+00
     -2.32222288183646E-20  -1.21220075447666E-33  -2.32222288183659E-20  -1.32606122421119E-17   9.59374498041296E-03
      9.59374478657871E-03   0.00000000000000E+00   0.00000000000000E+00   9.74785436271386E-10   5.00294483566914E-34
      9.74785436271386E-10   4.54003730804086E-18
      1.31972768226439E-02
      0.00000000000000E+00   2.13637711838179E-10   0.00000000000000E+00   0.00000000000000E+00  -1.08661977851802E-09
      7.16103392287375E-34  -1.08661977851802E-09   5.24554392664917E-18   0.00000000000000E+00   0.00000000000000E+00
      0.00000000000000E+00   0.00000000000000E+00   0.00000000000000E+00   0.00000000000000E+00   0.00000000000000E+00
      3.45316619869882E-18   0.00000000000000E+00   0.00000000000000E+00   0.00000000000000E+00   0.00000000000000E+00
     -8.59140965022375E-22  -1.17985573066164E-33  -8.59140965023555E-22  -1.32600812489627E-17   1.13496580674737E-02
      1.13496578513892E-02   0.00000000000000E+00   0.00000000000000E+00   1.08661977851888E-09   4.63752338374272E-34
      1.08661977851888E-09   4.56137112361480E-18
      1.54296004372017E-02
      0.00000000000000E+00   2.34305451867801E-10   0.00000000000000E+00   0.00000000000000E+00  -1.19167562003821E-09
      7.05118789796941E-34  -1.19167562003821E-09   5.24469231324242E-18   0.00000000000000E+00   0.00000000000000E+00
      0.00000000000000E+00   0.00000000000000E+00   0.00000000000000E+00   0.00000000000000E+00   0.00000000000000E+00
      3.43012126853791E-18   0.00000000000000E+00   0.00000000000000E+00   0.00000000000000E+00   0.00000000000000E+00
     -1.40978930861389E-20  -1.14330330254997E-33  -1.40978930861401E-20  -1.32595229530297E-17   1.32694563759935E-02
      1.32694561390062E-02   0.00000000000000E+00   0.00000000000000E+00   1.19167562005231E-09   4.38184512753025E-34
      1.19167562005231E-09   4.58470937124941E-18
      1.78702742557850E-02
      0.00000000000000E+00   2.53394604736373E-10   0.00000000000000E+00   0.00000000000000E+00  -1.28870658400768E-09
      7.06987076870604E-34  -1.28870658400768E-09   5.24376151647590E-18   0.00000000000000E+00   0.00000000000000E+00
      0.00000000000000E+00   0.00000000000000E+00   0.00000000000000E+00   0.00000000000000E+00   0.00000000000000E+00
      3.40493557995364E-18   0.00000000000000E+00   0.00000000000000E+00   0.00000000000000E+00   0.00000000000000E+00
      3.08037871081067E-20  -1.12254127924597E-33   3.08037871081056E-20  -1.32589384850241E-17   1.53684358599751E-02
      1.53684356036821E-02   0.00000000000000E+00   0.00000000000000E+00   1.28870658397687E-09   4.15554202375370E-34
      1.28870658397687E-09   4.61024138859452E-18
      2.05387442974361E-02
      0.00000000000000E+00   2.70696700931364E-10   0.00000000000000E+00   0.00000000000000E+00  -1.37666426478208E-09
      6.83166141124000E-34  -1.37666426478208E-09   5.24274418994635E-18   0.00000000000000E+00   0.00000000000000E+00
      0.00000000000000E+00   0.00000000000000E+00   0.00000000000000E+00   0.00000000000000E+00   0.00000000000000E+00
      3.37741089540993E-18   0.00000000000000E+00   0.00000000000000E+00   0.00000000000000E+00   0.00000000000000E+00
      2.40101263953848E-20  -1.04022538373576E-33   2.40101263953838E-20  -1.32583296184273E-17   1.76633200957950E-02
      1.76633198220042E-02   0.00000000000000E+00   0.00000000000000E+00   1.37666426475807E-09   3.57059242611760E-34
      1.37666426475807E-09   4.63817453307104E-18
      2.34562715429746E-02
      0.00000000000000E+00   2.86058893589173E-10   0.00000000000000E+00   0.00000000000000E+00  -1.45478585099602E-09
      7.28571010270251E-34  -1.45478585099602E-09   5.24163230631071E-18   0.00000000000000E+00   0.00000000000000E+00
      0.00000000000000E+00   0.00000000000000E+00   0.00000000000000E+00   0.00000000000000E+00   0.00000000000000E+00
      3.34733067276833E-18   0.00000000000000E+00   0.00000000000000E+00   0.00000000000000E+00   0.00000000000000E+00
     -8.42115063347144E-23  -1.06758586962841E-33  -8.42115063357820E-23  -1.32576988862225E-17   2.01723935269581E-02
      2.01723932376323E-02   0.00000000000000E+00   0.00000000000000E+00   1.45478585099611E-09   3.39014859358157E-34
      1.45478585099611E-09   4.66873590714351E-18
      2.66461013314300E-02
      0.00000000000000E+00   2.99401096559080E-10   0.00000000000000E+00   0.00000000000000E+00  -1.52268109470071E-09
      7.51660099226127E-34  -1.52268109470071E-09   5.24041709375120E-18   0.00000000000000E+00   0.00000000000000E+00
      0.00000000000000E+00   0.00000000000000E+00   0.00000000000000E+00   0.00000000000000E+00   0.00000000000000E+00
      3.31445836829504E-18   0.00000000000000E+00   0.00000000000000E+00   0.00000000000000E+00   0.00000000000000E+00
     -5.76922660405251E-20  -1.05108875695449E-33  -5.76922660405262E-20  -1.32570497085817E-17   2.29156471450298E-02
      2.29156468422133E-02   0.00000000000000E+00   0.00000000000000E+00   1.52268109475840E-09   2.99428657728360E-34
      1.52268109475840E-09   4.70217424653543E-18
      3.01336485668079E-02
      0.00000000000000E+00   3.10732164657805E-10   0.00000000000000E+00   0.00000000000000E+00  -1.58041437712572E-09
      6.66920755522562E-34  -1.58041437712572E-09   5.23908896642623E-18   0.00000000000000E+00   0.00000000000000E+00
      0.00000000000000E+00   0.00000000000000E+00   0.00000000000000E+00   0.00000000000000E+00   0.00000000000000E+00
      3.27853557937699E-18   0.00000000000000E+00   0.00000000000000E+00   0.00000000000000E+00   0.00000000000000E+00
     -1.92059877470167E-20  -9.52787078655236E-34  -1.92059877470177E-20  -1.32563865341196E-17   2.59149377674548E-02
      2.59149374531835E-02   0.00000000000000E+00   0.00000000000000E+00   1.58041437714493E-09   2.85866323132674E-34
      1.58041437714493E-09   4.73876198831638E-18
      3.39467002108211E-02
      0.00000000000000E+00   3.20163096350474E-10   0.00000000000000E+00   0.00000000000000E+00  -1.62857106691206E-09
      7.15202653634082E-34  -1.62857106691206E-09   5.23763744819260E-18   0.00000000000000E+00   0.00000000000000E+00
      0.00000000000000E+00   0.00000000000000E+00   0.00000000000000E+00   0.00000000000000E+00   0.00000000000000E+00
      3.23928000540933E-18   0.00000000000000E+00   0.00000000000000E+00   0.00000000000000E+00   0.00000000000000E+00
     -5.29810259839579E-20  -9.61457235158249E-34  -5.29810259839588E-20  -1.32557149840535E-17   2.91941621813061E-02
      2.91941618575044E-02   0.00000000000000E+00   0.00000000000000E+00   1.62857106696504E-09   2.46254581524166E-34
      1.62857106696504E-09   4.77879753045167E-18
      3.81156366749421E-02
      0.00000000000000E+00   3.27913180787676E-10   0.00000000000000E+00   0.00000000000000E+00  -1.66828739606056E-09
      7.18120059321685E-34  -1.66828739606056E-09   5.23605108914687E-18   0.00000000000000E+00   0.00000000000000E+00
      0.00000000000000E+00   0.00000000000000E+00   0.00000000000000E+00   0.00000000000000E+00   0.00000000000000E+00
      3.19638321234544E-18   0.00000000000000E+00   0.00000000000000E+00   0.00000000000000E+00   0.00000000000000E+00
     -8.55354349481121E-20  -9.41478872764064E-34  -8.55354349481130E-20  -1.32550420040114E-17   3.27794475404502E-02
      3.27794472088214E-02   0.00000000000000E+00   0.00000000000000E+00   1.66828739614609E-09   2.23358813442380E-34
      1.66828739614609E-09   4.82260770251912E-18
      4.26736738757145E-02
      0.00000000000000E+00   3.34303647397923E-10   0.00000000000000E+00   0.00000000000000E+00  -1.70121608551572E-09
      7.07925829027564E-34  -1.70121608551572E-09   5.23431737436152E-18   0.00000000000000E+00   0.00000000000000E+00
      0.00000000000000E+00   0.00000000000000E+00   0.00000000000000E+00   0.00000000000000E+00   0.00000000000000E+00
      3.14950818029959E-18   0.00000000000000E+00   0.00000000000000E+00   0.00000000000000E+00   0.00000000000000E+00
     -1.03991835629373E-19  -8.98341719862799E-34  -1.03991835629374E-19  -1.32543760183616E-17   3.66993595331145E-02
      3.66993591950388E-02   0.00000000000000E+00   0.00000000000000E+00   1.70121608561971E-09   1.90415890835236E-34
      1.70121608561971E-09   4.87055046370049E-18
      4.76571278818923E-02
      0.00000000000000E+00   3.39735116364576E-10   0.00000000000000E+00   0.00000000000000E+00  -1.72940876597243E-09
      6.87813876696639E-34  -1.72940876597243E-09   5.23242262420681E-18   0.00000000000000E+00   0.00000000000000E+00
      0.00000000000000E+00   0.00000000000000E+00   0.00000000000000E+00   0.00000000000000E+00   0.00000000000000E+00
      3.09828660996966E-18   0.00000000000000E+00   0.00000000000000E+00   0.00000000000000E+00   0.00000000000000E+00
     -1.02708840262644E-19  -8.54725407482050E-34  -1.02708840262645E-19  -1.32537270800156E-17   4.09851299784274E-02
      4.09851296348819E-02   0.00000000000000E+00   0.00000000000000E+00   1.72940876607514E-09   1.66911530785410E-34
      1.72940876607514E-09   4.92301784583917E-18
      5.31057042619801E-02
      0.00000000000000E+00   3.44648752402218E-10   0.00000000000000E+00   0.00000000000000E+00  -1.75511857660860E-09
      6.84379792535476E-34  -1.75511857660860E-09   5.23035188582559E-18   0.00000000000000E+00   0.00000000000000E+00
      0.00000000000000E+00   0.00000000000000E+00   0.00000000000000E+00   0.00000000000000E+00   0.00000000000000E+00
      3.04231597556663E-18   0.00000000000000E+00   0.00000000000000E+00   0.00000000000000E+00   0.00000000000000E+00
     -2.56484612779166E-18  -8.26125938846938E-34  -2.56484612779166E-18  -1.32531070248662E-17   4.56709056653029E-02
      4.56709053168202E-02   0.00000000000000E+00   0.00000000000000E+00   1.75511857917345E-09   1.41746146311462E-34
      1.75511857917345E-09   4.98043916347402E-18
      5.90628144375427E-02
      0.00000000000000E+00   3.49476052746800E-10   0.00000000000000E+00   0.00000000000000E+00  -1.78054533157344E-09
      6.69788528462978E-34  -1.78054533157344E-09   5.22808881566173E-18   0.00000000000000E+00   0.00000000000000E+00
      0.00000000000000E+00   0.00000000000000E+00   0.00000000000000E+00   0.00000000000000E+00   0.00000000000000E+00
      2.98115630822829E-18   0.00000000000000E+00   0.00000000000000E+00   0.00000000000000E+00   0.00000000000000E+00
      1.22663129158160E-20  -7.92909537687445E-34   1.22663129158152E-20  -1.32525296367922E-17   5.07940204162867E-02
      5.07940200629664E-02   0.00000000000000E+00   0.00000000000000E+00   1.78054533156118E-09   1.23121009224466E-34
      1.78054533156118E-09   5.04328451290220E-18
      6.55362074949873E-02
      0.00000000000000E+00   3.54541550777245E-10   0.00000000000000E+00   0.00000000000000E+00  -1.80733582309768E-09
      6.45334785338358E-34  -1.80733582309768E-09   5.22563063057164E-18   0.00000000000000E+00   0.00000000000000E+00
      0.00000000000000E+00   0.00000000000000E+00   0.00000000000000E+00   0.00000000000000E+00   0.00000000000000E+00
      2.91473407269568E-18   0.00000000000000E+00   0.00000000000000E+00   0.00000000000000E+00   0.00000000000000E+00
     -1.51466872005362E-20  -7.44918197296393E-34  -1.51466872005370E-20  -1.32520136449928E-17   5.63611384456891E-02
      5.63611380873030E-02   0.00000000000000E+00   0.00000000000000E+00   1.80733582311282E-09   9.95834119580340E-35
      1.80733582311282E-09   5.11164894172543E-18
      7.25706279507439E-02
      0.00000000000000E+00   3.60067085975686E-10   0.00000000000000E+00   0.00000000000000E+00  -1.83660397815770E-09
      7.16766692922745E-34  -1.83660397815770E-09   5.22296050744087E-18   0.00000000000000E+00   0.00000000000000E+00
      0.00000000000000E+00   0.00000000000000E+00   0.00000000000000E+00   0.00000000000000E+00   0.00000000000000E+00
      2.84259616839540E-18   0.00000000000000E+00   0.00000000000000E+00   0.00000000000000E+00   0.00000000000000E+00
     -7.76433803278141E-21  -7.96390529713090E-34  -7.76433803278220E-21  -1.32515755408837E-17   6.24107400376398E-02
      6.24107396737359E-02   0.00000000000000E+00   0.00000000000000E+00   1.83660397816546E-09   7.96238367903453E-35
      1.83660397816546E-09   5.18601886504743E-18
      8.02146981793327E-02
      0.00000000000000E+00   3.66165569145886E-10   0.00000000000000E+00   0.00000000000000E+00  -1.86892346935305E-09
      7.07863691669766E-34  -1.86892346935305E-09   5.22006017295853E-18   0.00000000000000E+00   0.00000000000000E+00
      0.00000000000000E+00   0.00000000000000E+00   0.00000000000000E+00   0.00000000000000E+00   0.00000000000000E+00
      2.76425026923001E-18   0.00000000000000E+00   0.00000000000000E+00   0.00000000000000E+00   0.00000000000000E+00
     -3.97335251605067E-20  -7.74689249297042E-34  -3.97335251605074E-20  -1.32512337682390E-17   6.89846404342261E-02
      6.89846400642409E-02   0.00000000000000E+00   0.00000000000000E+00   1.86892346939278E-09   6.68255576272756E-35
      1.86892346939278E-09   5.26692332605042E-18
      8.85212544943992E-02
      0.00000000000000E+00   3.72904790724367E-10   0.00000000000000E+00   0.00000000000000E+00  -1.90466118264373E-09
      6.81883819387444E-34  -1.90466118264373E-09   5.21690977825310E-18   0.00000000000000E+00   0.00000000000000E+00
      0.00000000000000E+00   0.00000000000000E+00   0.00000000000000E+00   0.00000000000000E+00   0.00000000000000E+00
      2.67916141435505E-18   0.00000000000000E+00   0.00000000000000E+00   0.00000000000000E+00   0.00000000000000E+00
     -2.87624613312762E-20  -7.31340776494314E-34  -2.87624613312769E-20  -1.32510088192123E-17   7.61282788651833E-02
      7.61282784884889E-02   0.00000000000000E+00   0.00000000000000E+00   1.90466118267249E-09   4.94569571068693E-35
      1.90466118267249E-09   5.35493762660410E-18
      9.75477123567714E-02
      0.00000000000000E+00   3.80327620062265E-10   0.00000000000000E+00   0.00000000000000E+00  -1.94405434429817E-09
      7.06288419316870E-34  -1.94405434429817E-09   5.21348776879748E-18   0.00000000000000E+00   0.00000000000000E+00
      0.00000000000000E+00   0.00000000000000E+00   0.00000000000000E+00   0.00000000000000E+00   0.00000000000000E+00
      2.58674835349474E-18   0.00000000000000E+00   0.00000000000000E+00   0.00000000000000E+00   0.00000000000000E+00
     -5.81756468022321E-21  -7.47471987029033E-34  -5.81756468022396E-21  -1.32509233734663E-17   8.38910326268234E-02
      8.38910322427441E-02   0.00000000000000E+00   0.00000000000000E+00   1.94405434430399E-09   4.11835677121626E-35
      1.94405434430399E-09   5.45068725117406E-18
      1.07356463233883E-01
      0.00000000000000E+00   3.88472681971786E-10   0.00000000000000E+00   0.00000000000000E+00  -1.98732011573731E-09
      6.49480683880999E-34  -1.98732011573731E-09   5.20977073511419E-18   0.00000000000000E+00   0.00000000000000E+00
      0.00000000000000E+00   0.00000000000000E+00   0.00000000000000E+00   0.00000000000000E+00   0.00000000000000E+00
      2.48637950743265E-18   0.00000000000000E+00   0.00000000000000E+00   0.00000000000000E+00   0.00000000000000E+00
     -9.59851325556777E-21  -6.78580054393735E-34  -9.59851325556844E-21  -1.32510023346233E-17   9.23265583811390E-02
      9.23265579889544E-02   0.00000000000000E+00   0.00000000000000E+00   1.98732011574691E-09   2.90993705127362E-35
      1.98732011574691E-09   5.55485209207649E-18
      1.17356463233883E-01
      0.00000000000000E+00   3.96856244162778E-10   0.00000000000000E+00   0.00000000000000E+00  -2.03190591938399E-09
      6.84734598781304E-34  -2.03190591938399E-09   5.20598275798896E-18   0.00000000000000E+00   0.00000000000000E+00
      0.00000000000000E+00   0.00000000000000E+00   0.00000000000000E+00   0.00000000000000E+00   0.00000000000000E+00
      2.38410503925763E-18   0.00000000000000E+00   0.00000000000000E+00   0.00000000000000E+00   0.00000000000000E+00
     -1.29729101602905E-20  -7.06581228363275E-34  -1.29729101602912E-20  -1.32512507436395E-17   1.00926558381139E-01
      1.00926557980615E-01   0.00000000000000E+00   0.00000000000000E+00   2.03190591939697E-09   2.18466295819724E-35
      2.03190591939697E-09   5.66116294639288E-18
      1.27356463233883E-01
      0.00000000000000E+00   4.05338776438492E-10   0.00000000000000E+00   0.00000000000000E+00  -2.07707468550259E-09
      6.42057194771001E-34  -2.07707468550259E-09   5.20219620071658E-18   0.00000000000000E+00   0.00000000000000E+00
      0.00000000000000E+00   0.00000000000000E+00   0.00000000000000E+00   0.00000000000000E+00   0.00000000000000E+00
      2.28187705936040E-18   0.00000000000000E+00   0.00000000000000E+00   0.00000000000000E+00   0.00000000000000E+00
     -9.72205775598552E-21  -6.58387079831177E-34  -9.72205775598618E-21  -1.32516533791299E-17   1.09526558381139E-01
      1.09526557972190E-01   0.00000000000000E+00   0.00000000000000E+00   2.07707468551231E-09   1.63298850601753E-35
      2.07707468551231E-09   5.76758011905294E-18
      1.37356463233883E-01
      0.00000000000000E+00   4.13939100409716E-10   0.00000000000000E+00   0.00000000000000E+00  -2.12292300584163E-09
      7.09738583236465E-34  -2.12292300584163E-09   5.19841095573822E-18   0.00000000000000E+00   0.00000000000000E+00
      0.00000000000000E+00   0.00000000000000E+00   0.00000000000000E+00   0.00000000000000E+00   0.00000000000000E+00
      2.17969091181002E-18   0.00000000000000E+00   0.00000000000000E+00   0.00000000000000E+00   0.00000000000000E+00
      4.47874264460061E-22  -7.21619352829919E-34   4.47874264459339E-22  -1.32521965033122E-17   1.18126558381139E-01
      1.18126557963661E-01   0.00000000000000E+00   0.00000000000000E+00   2.12292300584118E-09   1.18807695934541E-35
      2.12292300584118E-09   5.87409463576394E-18
      1.47356463233883E-01
      0.00000000000000E+00   4.22668251385636E-10   0.00000000000000E+00   0.00000000000000E+00  -2.16950705705481E-09
      7.05813872263662E-34  -2.16950705705481E-09   5.19462693293611E-18   0.00000000000000E+00   0.00000000000000E+00
      0.00000000000000E+00   0.00000000000000E+00   0.00000000000000E+00   0.00000000000000E+00   0.00000000000000E+00
      2.07754257314302E-18   0.00000000000000E+00   0.00000000000000E+00   0.00000000000000E+00   0.00000000000000E+00
     -5.56878612699236E-21  -7.15341908363614E-34  -5.56878612699307E-21  -1.32528678496846E-17   1.26726558381139E-01
      1.26726557955007E-01   0.00000000000000E+00   0.00000000000000E+00   2.16950705706038E-09   9.52803609995209E-36
      2.16950705706038E-09   5.98069834360549E-18
      1.57356463233883E-01
      0.00000000000000E+00   4.31530072084451E-10   0.00000000000000E+00   0.00000000000000E+00  -2.21684570441795E-09
      6.65520088989394E-34  -2.21684570441795E-09   5.19084405282021E-18   0.00000000000000E+00   0.00000000000000E+00
      0.00000000000000E+00   0.00000000000000E+00   0.00000000000000E+00   0.00000000000000E+00   0.00000000000000E+00
      1.97542852746167E-18   0.00000000000000E+00   0.00000000000000E+00   0.00000000000000E+00   0.00000000000000E+00
      6.45801934181291E-21  -6.72090126941644E-34   6.45801934181223E-21  -1.32536564008988E-17   1.35326558381139E-01
      1.35326557946216E-01   0.00000000000000E+00   0.00000000000000E+00   2.21684570441150E-09   6.57003795224998E-36
      2.21684570441150E-09   6.08738382061695E-18
      1.67356463233883E-01
      0.00000000000000E+00   4.40524377176604E-10   0.00000000000000E+00   0.00000000000000E+00  -2.26493801895884E-09
      6.51305678754455E-34  -2.26493801895884E-09   5.18706224334911E-18   0.00000000000000E+00   0.00000000000000E+00
      0.00000000000000E+00   0.00000000000000E+00   0.00000000000000E+00   0.00000000000000E+00   0.00000000000000E+00
      1.87334567088386E-18   0.00000000000000E+00   0.00000000000000E+00   0.00000000000000E+00   0.00000000000000E+00
      2.23066637687231E-21  -6.56396309362818E-34   2.23066637687165E-21  -1.32545522087339E-17   1.43926558381139E-01
      1.43926557937285E-01   0.00000000000000E+00   0.00000000000000E+00   2.26493801895661E-09   5.09063060836339E-36
      2.26493801895661E-09   6.19414429450093E-18
      1.77356463233883E-01
      0.00000000000000E+00   4.49649804571840E-10   0.00000000000000E+00   0.00000000000000E+00  -2.31377727587604E-09
      6.76561314811024E-34  -2.31377727587604E-09   5.18328143890579E-18   0.00000000000000E+00   0.00000000000000E+00
      0.00000000000000E+00   0.00000000000000E+00   0.00000000000000E+00   0.00000000000000E+00   0.00000000000000E+00
      1.77129124420027E-18   0.00000000000000E+00   0.00000000000000E+00   0.00000000000000E+00   0.00000000000000E+00
      4.00012781372556E-21  -6.80538264153509E-34   4.00012781372488E-21  -1.32555462599382E-17   1.52526558381139E-01
      1.52526557928220E-01   0.00000000000000E+00   0.00000000000000E+00   2.31377727587204E-09   3.97694934248490E-36
      2.31377727587204E-09   6.30097357683211E-18
      1.87356463233883E-01
      0.00000000000000E+00   4.58905198010521E-10   0.00000000000000E+00   0.00000000000000E+00  -2.36335850559845E-09