DF-ISE text

Info {
  version   = 1.0
  type      = xyplot
  datasets  = [
    "time"
    "source OuterVoltage" "source InnerVoltage" "source QuasiFermiPotential" "source DisplacementCurrent" "source eCurrent"
    "source hCurrent" "source TotalCurrent" "source Charge" "gate OuterVoltage" "gate InnerVoltage"
    "gate QuasiFermiPotential" "gate DisplacementCurrent" "gate eCurrent" "gate hCurrent" "gate TotalCurrent"
    "gate Charge" "substrate OuterVoltage" "substrate InnerVoltage" "substrate QuasiFermiPotential" "substrate DisplacementCurrent"
    "substrate eCurrent" "substrate hCurrent" "substrate TotalCurrent" "substrate Charge" "drain OuterVoltage"
    "drain InnerVoltage" "drain QuasiFermiPotential" "drain DisplacementCurrent" "drain eCurrent" "drain hCurrent"
    "drain TotalCurrent" "drain Charge" ]
  functions = [
    Time
    OuterVoltage InnerVoltage QuasiFermiPotential DisplacementCurrent eCurrent
    hCurrent TotalCurrent Charge OuterVoltage InnerVoltage
    QuasiFermiPotential DisplacementCurrent eCurrent hCurrent TotalCurrent
    Charge OuterVoltage InnerVoltage QuasiFermiPotential DisplacementCurrent
    eCurrent hCurrent TotalCurrent Charge OuterVoltage
    InnerVoltage QuasiFermiPotential DisplacementCurrent eCurrent hCurrent
    TotalCurrent Charge ]
}

Data {
      0.00000000000000E+00
      0.00000000000000E+00   0.00000000000000E+00   0.00000000000000E+00   0.00000000000000E+00   1.31219497866606E-22
     -1.91920076501110E-34   1.31219497866414E-22   4.63342370153950E-18   0.00000000000000E+00   0.00000000000000E+00
      0.00000000000000E+00   0.00000000000000E+00   0.00000000000000E+00   0.00000000000000E+00   0.00000000000000E+00
      2.82115473415814E-18   0.00000000000000E+00   0.00000000000000E+00   0.00000000000000E+00   0.00000000000000E+00
     -3.33325374546682E-22   4.21004684415649E-34  -3.33325374546261E-22  -1.13085234286250E-17   0.00000000000000E+00
      0.00000000000000E+00   0.00000000000000E+00   0.00000000000000E+00   2.02105876680077E-22  -2.29084607914538E-34
      2.02105876679848E-22   3.85394499292734E-18
      0.00000000000000E+00
      0.00000000000000E+00   0.00000000000000E+00   0.00000000000000E+00   0.00000000000000E+00  -3.80686568866744E-20
     -2.17408713458831E-34  -3.80686568866747E-20   4.63139812564475E-18   0.00000000000000E+00   0.00000000000000E+00
      0.00000000000000E+00   0.00000000000000E+00   0.00000000000000E+00   0.00000000000000E+00   0.00000000000000E+00
      2.81510133972468E-18   0.00000000000000E+00   0.00000000000000E+00   0.00000000000000E+00   0.00000000000000E+00
      5.57828310069865E-20   4.18467339181998E-34   5.57828310069869E-20  -1.12989926414474E-17   0.00000000000000E+00
      0.00000000000000E+00   0.00000000000000E+00   0.00000000000000E+00  -1.77141741203121E-20  -2.01058625723167E-34
     -1.77141741203123E-20   3.85249317607793E-18
      1.00000000000000E-03
      0.00000000000000E+00   2.09130296538692E-12   0.00000000000000E+00   0.00000000000000E+00  -9.82940882034018E-12
     -1.93038430099300E-34  -9.82940882034018E-12   4.63137783604726E-18   0.00000000000000E+00   0.00000000000000E+00
      0.00000000000000E+00   0.00000000000000E+00   0.00000000000000E+00   0.00000000000000E+00   0.00000000000000E+00
      2.81454939914624E-18   0.00000000000000E+00   0.00000000000000E+00   0.00000000000000E+00   0.00000000000000E+00
     -1.41315699167988E-19   3.89538791312149E-34  -1.41315699167987E-19  -1.12989718545318E-17   5.00000000000000E-05
      4.99999978877835E-05   0.00000000000000E+00   0.00000000000000E+00   9.82940896165588E-12  -1.96500361212849E-34
      9.82940896165588E-12   3.85304461933827E-18
      2.09333333333333E-03
      0.00000000000000E+00   4.37072861458762E-12   0.00000000000000E+00   0.00000000000000E+00  -2.05430356253594E-11
     -1.85034742181815E-34  -2.05430356253594E-11   4.63135565306243E-18   0.00000000000000E+00   0.00000000000000E+00
      0.00000000000000E+00   0.00000000000000E+00   0.00000000000000E+00   0.00000000000000E+00   0.00000000000000E+00
      2.81394595358021E-18   0.00000000000000E+00   0.00000000000000E+00   0.00000000000000E+00   0.00000000000000E+00
     -1.89407432577285E-21   3.64499864068142E-34  -1.89407432577248E-21  -1.12989491501931E-17   1.04666666666667E-04
      1.04666662252230E-04   0.00000000000000E+00   0.00000000000000E+00   2.05430356272535E-11  -1.79465121886326E-34
      2.05430356272535E-11   3.85364754355047E-18
      3.29600000000000E-03
      0.00000000000000E+00   6.86925073481111E-12   0.00000000000000E+00   0.00000000000000E+00  -3.22864016796340E-11
     -1.61080197639464E-34  -3.22864016796340E-11   4.63133125215314E-18   0.00000000000000E+00   0.00000000000000E+00
      0.00000000000000E+00   0.00000000000000E+00   0.00000000000000E+00   0.00000000000000E+00   0.00000000000000E+00
      2.81328217486946E-18   0.00000000000000E+00   0.00000000000000E+00   0.00000000000000E+00   0.00000000000000E+00
      1.81115173102886E-20   3.48210446398707E-34   1.81115173102890E-20  -1.12989242027748E-17   1.64800000000000E-04
      1.64799993062070E-04   0.00000000000000E+00   0.00000000000000E+00   3.22864016615224E-11  -1.87130248759242E-34
      3.22864016615224E-11   3.85431077575221E-18
      4.61893333333333E-03
      0.00000000000000E+00   9.60669418266648E-12   0.00000000000000E+00   0.00000000000000E+00  -4.51526597800256E-11
     -1.84588915789270E-34  -4.51526597800256E-11   4.63130441160668E-18   0.00000000000000E+00   0.00000000000000E+00
      0.00000000000000E+00   0.00000000000000E+00   0.00000000000000E+00   0.00000000000000E+00   0.00000000000000E+00
      2.81255203208312E-18   0.00000000000000E+00   0.00000000000000E+00   0.00000000000000E+00   0.00000000000000E+00
      1.45892638924866E-20   3.66727852575820E-34   1.45892638924870E-20  -1.12988967936867E-17   2.30946666666667E-04
      2.30946656963936E-04   0.00000000000000E+00   0.00000000000000E+00   4.51526597654364E-11  -1.82138936786550E-34
      4.51526597654364E-11   3.85504034999684E-18
      6.07416000000000E-03
      0.00000000000000E+00   1.26044485769523E-11   0.00000000000000E+00   0.00000000000000E+00  -5.92423811277894E-11
     -1.79291562799973E-34  -5.92423811277894E-11   4.63127488755552E-18   0.00000000000000E+00   0.00000000000000E+00
      0.00000000000000E+00   0.00000000000000E+00   0.00000000000000E+00   0.00000000000000E+00   0.00000000000000E+00
      2.81174889169261E-18   0.00000000000000E+00   0.00000000000000E+00   0.00000000000000E+00   0.00000000000000E+00
     -2.97843811703222E-20   4.27636369600423E-34  -2.97843811703218E-20  -1.12988666836703E-17   3.03708000000000E-04
      3.03707987269561E-04   0.00000000000000E+00   0.00000000000000E+00   5.92423811575738E-11  -2.48344806800450E-34
      5.92423811575738E-11   3.85584290442223E-18
      7.67490933333333E-03
      0.00000000000000E+00   1.58855558913226E-11   0.00000000000000E+00   0.00000000000000E+00  -7.46638181340206E-11
     -1.68580150061981E-34  -7.46638181340206E-11   4.63124241176536E-18   0.00000000000000E+00   0.00000000000000E+00
      0.00000000000000E+00   0.00000000000000E+00   0.00000000000000E+00   0.00000000000000E+00   0.00000000000000E+00
      2.81086545741541E-18   0.00000000000000E+00   0.00000000000000E+00   0.00000000000000E+00   0.00000000000000E+00
      7.07854712486036E-20   3.75380096435426E-34   7.07854712486040E-20  -1.12988336109815E-17   3.83745466666667E-04
      3.83745450622332E-04   0.00000000000000E+00   0.00000000000000E+00   7.46638180632351E-11  -2.06799946373444E-34
      7.46638180632351E-11   3.85672574180076E-18
      9.43573360000000E-03
      0.00000000000000E+00   1.94747283129858E-11   0.00000000000000E+00   0.00000000000000E+00  -9.15331502577362E-11
     -1.90166849620508E-34  -9.15331502577362E-11   4.63120668920263E-18   0.00000000000000E+00   0.00000000000000E+00
      0.00000000000000E+00   0.00000000000000E+00   0.00000000000000E+00   0.00000000000000E+00   0.00000000000000E+00
      2.80989370406298E-18   0.00000000000000E+00   0.00000000000000E+00   0.00000000000000E+00   0.00000000000000E+00
      6.30857434697887E-20   4.11561679654023E-34   6.30857434697891E-20  -1.12987972894384E-17   4.71786680000000E-04
      4.71786660330624E-04   0.00000000000000E+00   0.00000000000000E+00   9.15331501946505E-11  -2.21394830033516E-34
      9.15331501946505E-11   3.85769689617274E-18
      1.13726402933333E-02
      0.00000000000000E+00   2.33984460403417E-11   0.00000000000000E+00   0.00000000000000E+00  -1.09974667007987E-10
     -1.78110002277850E-34  -1.09974667007987E-10   4.63116739535959E-18   0.00000000000000E+00   0.00000000000000E+00
      0.00000000000000E+00   0.00000000000000E+00   0.00000000000000E+00   0.00000000000000E+00   0.00000000000000E+00
      2.80882480480014E-18   0.00000000000000E+00   0.00000000000000E+00   0.00000000000000E+00   0.00000000000000E+00
      9.20132430160807E-20   3.99075417201017E-34   9.20132430160811E-20  -1.12987574063392E-17   5.68632014666667E-04
      5.68631991034395E-04   0.00000000000000E+00   0.00000000000000E+00   1.09974666915974E-10  -2.20965414923168E-34
      1.09974666915974E-10   3.85876520617949E-18
      1.35032376560000E-02
      0.00000000000000E+00   2.76848883994283E-11   0.00000000000000E+00   0.00000000000000E+00  -1.30120864864230E-10
     -1.39115636139789E-34  -1.30120864864230E-10   4.63112417331305E-18   0.00000000000000E+00   0.00000000000000E+00
      0.00000000000000E+00   0.00000000000000E+00   0.00000000000000E+00   0.00000000000000E+00   0.00000000000000E+00
      2.80764905115858E-18   0.00000000000000E+00   0.00000000000000E+00   0.00000000000000E+00   0.00000000000000E+00
      1.07296994150066E-19   3.15171178152821E-34   1.07296994150066E-19  -1.12987136202420E-17   6.75161882800000E-04
      6.75161854838485E-04   0.00000000000000E+00   0.00000000000000E+00   1.30120864756933E-10  -1.76055542013032E-34
      1.30120864756933E-10   3.85994039577042E-18
      1.58468947549333E-02
      0.00000000000000E+00   3.23639993258179E-11   0.00000000000000E+00   0.00000000000000E+00  -1.52112416334487E-10
     -1.89525369746942E-34  -1.52112416334487E-10   4.63107663048999E-18   0.00000000000000E+00   0.00000000000000E+00
      0.00000000000000E+00   0.00000000000000E+00   0.00000000000000E+00   0.00000000000000E+00   0.00000000000000E+00
      2.80635576509036E-18   0.00000000000000E+00   0.00000000000000E+00   0.00000000000000E+00   0.00000000000000E+00
      1.76925812351202E-19   3.85160230371782E-34   1.76925812351202E-19  -1.12986655586136E-17   7.92344737746667E-04
      7.92344705059328E-04   0.00000000000000E+00   0.00000000000000E+00   1.52112416157561E-10  -1.95634860624840E-34
      1.52112416157561E-10   3.86123316303329E-18
      1.84249175637600E-02
      0.00000000000000E+00   3.74674329381063E-11   0.00000000000000E+00   0.00000000000000E+00  -1.76097980697834E-10
     -1.69312543183955E-34  -1.76097980697834E-10   4.63102433511131E-18   0.00000000000000E+00   0.00000000000000E+00
      0.00000000000000E+00   0.00000000000000E+00   0.00000000000000E+00   0.00000000000000E+00   0.00000000000000E+00
      2.80493320227040E-18   0.00000000000000E+00   0.00000000000000E+00   0.00000000000000E+00   0.00000000000000E+00
      2.49626179655186E-19   3.32324654378428E-34   2.49626179655187E-19  -1.12986128153504E-17   9.21245878188001E-04
      9.21245840346292E-04   0.00000000000000E+00   0.00000000000000E+00   1.76097980448208E-10  -1.63012111194473E-34
      1.76097980448208E-10   3.86265527796870E-18
      2.12607426534693E-02
      0.00000000000000E+00   4.30284404328195E-11   0.00000000000000E+00   0.00000000000000E+00  -2.02233814575245E-10
     -1.53289122320549E-34  -2.02233814575245E-10   4.63096681228194E-18   0.00000000000000E+00   0.00000000000000E+00
      0.00000000000000E+00   0.00000000000000E+00   0.00000000000000E+00   0.00000000000000E+00   0.00000000000000E+00
      2.80336844578145E-18   0.00000000000000E+00   0.00000000000000E+00   0.00000000000000E+00   0.00000000000000E+00
      3.55417709395161E-19   3.45798311924481E-34   3.55417709395162E-19  -1.12985549481787E-17   1.06303713267347E-03
      1.06303708921527E-03   0.00000000000000E+00   0.00000000000000E+00   2.02233814219828E-10  -1.92509189603932E-34
      2.02233814219828E-10   3.86421969011537E-18
      2.43801502521496E-02
      0.00000000000000E+00   4.90817816413337E-11   0.00000000000000E+00   0.00000000000000E+00  -2.30683133562072E-10
     -1.65404910548034E-34  -2.30683133562072E-10   4.63090353969165E-18   0.00000000000000E+00   0.00000000000000E+00
      0.00000000000000E+00   0.00000000000000E+00   0.00000000000000E+00   0.00000000000000E+00   0.00000000000000E+00
      2.80164728923007E-18   0.00000000000000E+00   0.00000000000000E+00   0.00000000000000E+00   0.00000000000000E+00
     -3.78352306317814E-18   3.53369922641546E-34  -3.78352306317814E-18  -1.12984914759483E-17   1.21900751260748E-03
      1.21900746303555E-03   0.00000000000000E+00   0.00000000000000E+00   2.30683137345595E-10  -1.87965012093512E-34
      2.30683137345595E-10   3.86594064702655E-18
      2.78114986106979E-02
      0.00000000000000E+00   5.56634801105758E-11   0.00000000000000E+00   0.00000000000000E+00  -2.61615163743575E-10
     -1.89814072658122E-34  -2.61615163743575E-10   4.63083394288883E-18   0.00000000000000E+00   0.00000000000000E+00
      0.00000000000000E+00   0.00000000000000E+00   0.00000000000000E+00   0.00000000000000E+00   0.00000000000000E+00
      2.79975410825085E-18   0.00000000000000E+00   0.00000000000000E+00   0.00000000000000E+00   0.00000000000000E+00
      8.48418560307880E-19   3.74218763581863E-34   8.48418560307880E-19  -1.12984218758409E-17   1.39057493053490E-03
      1.39057487431562E-03   0.00000000000000E+00   0.00000000000000E+00   2.61615162895157E-10  -1.84404690923741E-34
      2.61615162895157E-10   3.86783382470128E-18
      3.15859818051010E-02
      0.00000000000000E+00   6.28105807349670E-11   0.00000000000000E+00   0.00000000000000E+00  -2.95203824342769E-10
     -1.82821089467648E-34  -2.95203824342769E-10   4.63075739008436E-18   0.00000000000000E+00   0.00000000000000E+00
      0.00000000000000E+00   0.00000000000000E+00   0.00000000000000E+00   0.00000000000000E+00   0.00000000000000E+00
      2.79767171925070E-18   0.00000000000000E+00   0.00000000000000E+00   0.00000000000000E+00   0.00000000000000E+00
      1.15715066261905E-18   3.49345623933463E-34   1.15715066261906E-18  -1.12983455805212E-17   1.57929909025505E-03
      1.57929902681743E-03   0.00000000000000E+00   0.00000000000000E+00   2.95203823185618E-10  -1.66524534465815E-34
      2.95203823185618E-10   3.86991647118620E-18
      3.57379133189445E-02
      0.00000000000000E+00   7.05607415575910E-11   0.00000000000000E+00   0.00000000000000E+00  -3.31625966139774E-10
     -1.59976720598857E-34  -3.31625966139774E-10   4.63067318643980E-18   0.00000000000000E+00   0.00000000000000E+00
      0.00000000000000E+00   0.00000000000000E+00   0.00000000000000E+00   0.00000000000000E+00   0.00000000000000E+00
      2.79538122413555E-18   0.00000000000000E+00   0.00000000000000E+00   0.00000000000000E+00   0.00000000000000E+00
      1.71866116423390E-18   3.61387504333172E-34   1.71866116423390E-18  -1.12982619752665E-17   1.78689566594722E-03
      1.78689559468220E-03   0.00000000000000E+00   0.00000000000000E+00   3.31625964421113E-10  -2.01410783734315E-34
      3.31625964421113E-10   3.87220756469113E-18
      4.03050379841723E-02
      0.00000000000000E+00   7.89517839010640E-11   0.00000000000000E+00   0.00000000000000E+00  -3.71059107468599E-10
     -1.81722053817711E-34  -3.71059107468599E-10   4.63058056778834E-18   0.00000000000000E+00   0.00000000000000E+00
      0.00000000000000E+00   0.00000000000000E+00   0.00000000000000E+00   0.00000000000000E+00   0.00000000000000E+00
      2.79286183963621E-18   0.00000000000000E+00   0.00000000000000E+00   0.00000000000000E+00   0.00000000000000E+00
      2.11192768875995E-17   3.72380523755492E-34   2.11192768875995E-17  -1.12981703951227E-17   2.01525189920861E-03
      2.01525181946896E-03   0.00000000000000E+00   0.00000000000000E+00   3.71059086349322E-10  -1.90658469937781E-34
      3.71059086349322E-10   3.87472798769819E-18
      4.53288751159228E-02
      0.00000000000000E+00   8.80210605097599E-11   0.00000000000000E+00   0.00000000000000E+00  -4.13678446811922E-10
     -1.90637223039824E-34  -4.13678446811922E-10   4.63047869373302E-18   0.00000000000000E+00   0.00000000000000E+00
      0.00000000000000E+00   0.00000000000000E+00   0.00000000000000E+00   0.00000000000000E+00   0.00000000000000E+00
      2.79009070972265E-18   0.00000000000000E+00   0.00000000000000E+00   0.00000000000000E+00   0.00000000000000E+00
      3.69631056686879E-18   3.66862731558628E-34   3.69631056686879E-18  -1.12980701221598E-17   2.26644375579614E-03
      2.26644366689691E-03   0.00000000000000E+00   0.00000000000000E+00   4.13678443115612E-10  -1.76225508518804E-34
      4.13678443115612E-10   3.87750071870417E-18
      5.08550959608485E-02
      0.00000000000000E+00   9.78046561604304E-11   0.00000000000000E+00   0.00000000000000E+00  -4.59653451117839E-10
     -2.11535939341544E-34  -4.59653451117839E-10   4.63036664006081E-18   0.00000000000000E+00   0.00000000000000E+00
      0.00000000000000E+00   0.00000000000000E+00   0.00000000000000E+00   0.00000000000000E+00   0.00000000000000E+00
      2.78704269944153E-18   0.00000000000000E+00   0.00000000000000E+00   0.00000000000000E+00   0.00000000000000E+00
      5.37795825023272E-18   3.83019606001762E-34   5.37795825023272E-18  -1.12979603829012E-17   2.54275479804242E-03
      2.54275469926220E-03   0.00000000000000E+00   0.00000000000000E+00   4.59653445739881E-10  -1.71483666660218E-34
      4.59653445739881E-10   3.88055104339891E-18
      5.69339388902666E-02
      0.00000000000000E+00   1.08336548303357E-10   0.00000000000000E+00   0.00000000000000E+00  -5.09143297275822E-10
     -1.83385236279062E-34  -5.09143297275822E-10   4.63024339040496E-18   0.00000000000000E+00   0.00000000000000E+00
      0.00000000000000E+00   0.00000000000000E+00   0.00000000000000E+00   0.00000000000000E+00   0.00000000000000E+00
      2.78369016834719E-18   0.00000000000000E+00   0.00000000000000E+00   0.00000000000000E+00   0.00000000000000E+00
      7.83978904563464E-18   3.37013384284021E-34   7.83978904563464E-18  -1.12978403460255E-17   2.84669694451333E-03
      2.84669683509644E-03   0.00000000000000E+00   0.00000000000000E+00   5.09143289436033E-10  -1.53628148004958E-34
      5.09143289436033E-10   3.88390678727332E-18
      6.36206661126266E-02
      0.00000000000000E+00   1.19647379914612E-10   0.00000000000000E+00   0.00000000000000E+00  -5.62291715729936E-10
     -1.57463278479896E-34  -5.62291715729936E-10   4.63010782708178E-18   0.00000000000000E+00   0.00000000000000E+00
      0.00000000000000E+00   0.00000000000000E+00   0.00000000000000E+00   0.00000000000000E+00   0.00000000000000E+00
      2.78000272153011E-18   0.00000000000000E+00   0.00000000000000E+00   0.00000000000000E+00   0.00000000000000E+00
      1.14448669416894E-17   3.44692860740251E-34   1.14448669416894E-17  -1.12977091204731E-17   3.18103330563133E-03
      3.18103318479114E-03   0.00000000000000E+00   0.00000000000000E+00   5.62291704285068E-10  -1.87229582260355E-34
      5.62291704285068E-10   3.88759857186116E-18
      7.09760660572226E-02
      0.00000000000000E+00   1.31763234899561E-10   0.00000000000000E+00   0.00000000000000E+00  -6.19220740052992E-10
     -1.88854912958973E-34  -6.19220740052992E-10   4.62995872102151E-18   0.00000000000000E+00   0.00000000000000E+00
      0.00000000000000E+00   0.00000000000000E+00   0.00000000000000E+00   0.00000000000000E+00   0.00000000000000E+00
      2.77594693606373E-18   0.00000000000000E+00   0.00000000000000E+00   0.00000000000000E+00   0.00000000000000E+00
      2.17912730411304E-17   3.75779185007414E-34   2.17912730411304E-17  -1.12975657541418E-17   3.54880330286113E-03
      3.54880316978467E-03   0.00000000000000E+00   0.00000000000000E+00   6.19220718261719E-10  -1.86924272048440E-34
      6.19220718261719E-10   3.89166009705655E-18
      7.90670059962782E-02
      0.00000000000000E+00   1.44704030809967E-10   0.00000000000000E+00   0.00000000000000E+00  -6.80023503821675E-10
     -1.89647385047016E-34  -6.80023503821675E-10   4.62979472070232E-18   0.00000000000000E+00   0.00000000000000E+00
      0.00000000000000E+00   0.00000000000000E+00   0.00000000000000E+00   0.00000000000000E+00   0.00000000000000E+00
      2.77148606042380E-18   0.00000000000000E+00   0.00000000000000E+00   0.00000000000000E+00   0.00000000000000E+00
      2.41451916745245E-17   3.51532696114527E-34   2.41451916745245E-17  -1.12974092333065E-17   3.95335029981391E-03
      3.95335015366812E-03   0.00000000000000E+00   0.00000000000000E+00   6.80023479676484E-10  -1.61885311067511E-34
      6.80023479676484E-10   3.89612845218041E-18
      8.79670399292394E-02
      0.00000000000000E+00   1.58481807810545E-10   0.00000000000000E+00   0.00000000000000E+00  -7.44756048643612E-10
     -1.75786588734752E-34  -7.44756048643612E-10   4.62961433999167E-18   0.00000000000000E+00   0.00000000000000E+00
      0.00000000000000E+00   0.00000000000000E+00   0.00000000000000E+00   0.00000000000000E+00   0.00000000000000E+00
      2.76657968428358E-18   0.00000000000000E+00   0.00000000000000E+00   0.00000000000000E+00   0.00000000000000E+00
      6.71434537920519E-17   3.60882148458909E-34   6.71434537920519E-17  -1.12972384830630E-17   4.39835199646197E-03
      4.39835183640165E-03   0.00000000000000E+00   0.00000000000000E+00   7.44755981500159E-10  -1.85095559724156E-34
      7.44755981500159E-10   3.90104445878779E-18
      9.77570772554967E-02
      0.00000000000000E+00   1.73098743812146E-10   0.00000000000000E+00   0.00000000000000E+00  -8.13427902645968E-10
     -1.83795632956700E-34  -8.13427902645968E-10   4.62941594478706E-18   0.00000000000000E+00   0.00000000000000E+00
      0.00000000000000E+00   0.00000000000000E+00   0.00000000000000E+00   0.00000000000000E+00   0.00000000000000E+00
      2.76118337576615E-18   0.00000000000000E+00   0.00000000000000E+00   0.00000000000000E+00   0.00000000000000E+00
      5.95579113716640E-17   3.77873949116016E-34   5.95579113716640E-17  -1.12970523690476E-17   4.88785386277484E-03
      4.88785368795261E-03   0.00000000000000E+00   0.00000000000000E+00   8.13427843088057E-10  -1.94078316159316E-34
      8.13427843088057E-10   3.90645304849444E-18
      1.07757077255497E-01
      0.00000000000000E+00   1.87463458857920E-10   0.00000000000000E+00   0.00000000000000E+00  -8.80911571260723E-10
     -1.91642068307746E-34  -8.80911571260723E-10   4.62921331996652E-18   0.00000000000000E+00   0.00000000000000E+00
      0.00000000000000E+00   0.00000000000000E+00   0.00000000000000E+00   0.00000000000000E+00   0.00000000000000E+00
      2.75567209184354E-18   0.00000000000000E+00   0.00000000000000E+00   0.00000000000000E+00   0.00000000000000E+00
      8.90530984680014E-17   3.66061896707853E-34   8.90530984680014E-17  -1.12968641026332E-17   5.38785386277483E-03
      5.38785367344551E-03   0.00000000000000E+00   0.00000000000000E+00   8.80911482207625E-10  -1.74419828400107E-34
      8.80911482207625E-10   3.91197869082314E-18
      1.17757077255497E-01
      0.00000000000000E+00   2.01274144338088E-10   0.00000000000000E+00   0.00000000000000E+00  -9.45789237375919E-10
     -1.78320605007862E-34  -9.45789237375919E-10   4.62901072046107E-18   0.00000000000000E+00   0.00000000000000E+00
      0.00000000000000E+00   0.00000000000000E+00   0.00000000000000E+00   0.00000000000000E+00   0.00000000000000E+00
      2.75016156669860E-18   0.00000000000000E+00   0.00000000000000E+00   0.00000000000000E+00   0.00000000000000E+00
      5.83882651675367E-17   3.20252986457922E-34   5.83882651675367E-17  -1.12966776826033E-17   5.88785386277483E-03
      5.88785365949804E-03   0.00000000000000E+00   0.00000000000000E+00   9.45789178987653E-10  -1.41932381450060E-34
      9.45789178987653E-10   3.91750539544361E-18
      1.27757077255497E-01
      0.00000000000000E+00   2.14548425938051E-10   0.00000000000000E+00   0.00000000000000E+00  -1.00814423346530E-09
     -1.66174261988184E-34  -1.00814423346530E-09   4.62880814603521E-18   0.00000000000000E+00   0.00000000000000E+00
      0.00000000000000E+00   0.00000000000000E+00   0.00000000000000E+00   0.00000000000000E+00   0.00000000000000E+00
      2.74465179421535E-18   0.00000000000000E+00   0.00000000000000E+00   0.00000000000000E+00   0.00000000000000E+00
      5.74713084857382E-17   3.45249434291584E-34   5.74713084857382E-17  -1.12964930967416E-17   6.38785386277483E-03
      6.38785364609239E-03   0.00000000000000E+00   0.00000000000000E+00   1.00814417599399E-09  -1.79075172303400E-34
      1.00814417599399E-09   3.92303315649106E-18
      1.37757077255497E-01
      0.00000000000000E+00   2.27303744803323E-10   0.00000000000000E+00   0.00000000000000E+00  -1.06805871817412E-09
     -1.79315698719257E-34  -1.06805871817412E-09   4.62860559645418E-18   0.00000000000000E+00   0.00000000000000E+00
      0.00000000000000E+00   0.00000000000000E+00   0.00000000000000E+00   0.00000000000000E+00   0.00000000000000E+00
      2.73914276835370E-18   0.00000000000000E+00   0.00000000000000E+00   0.00000000000000E+00   0.00000000000000E+00
      5.65696242136630E-17   3.38145897356260E-34   5.65696242136630E-17  -1.12963103329539E-17   6.88785386277483E-03
      6.88785363321093E-03   0.00000000000000E+00   0.00000000000000E+00   1.06805866160450E-09  -1.58830198637003E-34
      1.06805866160450E-09   3.92856196814605E-18
      1.47757077255497E-01
      0.00000000000000E+00   2.39557274198932E-10   0.00000000000000E+00   0.00000000000000E+00  -1.12561375357725E-09
     -1.76551219245791E-34  -1.12561375357725E-09   4.62840307148012E-18   0.00000000000000E+00   0.00000000000000E+00
      0.00000000000000E+00   0.00000000000000E+00   0.00000000000000E+00   0.00000000000000E+00   0.00000000000000E+00
      2.73363448305163E-18   0.00000000000000E+00   0.00000000000000E+00   0.00000000000000E+00   0.00000000000000E+00
      5.97581033077084E-17   3.39956292989414E-34   5.97581033077084E-17  -1.12961293791218E-17   7.38785386277483E-03
      7.38785362083631E-03   0.00000000000000E+00   0.00000000000000E+00   1.12561369381915E-09  -1.63405073743623E-34
      1.12561369381915E-09   3.93409182459009E-18
      1.57757077255497E-01
      0.00000000000000E+00   2.51325880390371E-10   0.00000000000000E+00   0.00000000000000E+00  -1.18088887693260E-09
     -1.73774519013950E-34  -1.18088887693260E-09   4.62820057087563E-18   0.00000000000000E+00   0.00000000000000E+00
      0.00000000000000E+00   0.00000000000000E+00   0.00000000000000E+00   0.00000000000000E+00   0.00000000000000E+00
      2.72812693231701E-18   0.00000000000000E+00   0.00000000000000E+00   0.00000000000000E+00   0.00000000000000E+00
      5.03673006267221E-17   3.18065822194593E-34   5.03673006267221E-17  -1.12959502232436E-17   7.88785386277484E-03
      7.88785360895149E-03   0.00000000000000E+00   0.00000000000000E+00   1.18088882656530E-09  -1.44291303180643E-34
      1.18088882656530E-09   3.93962272005093E-18
      1.67757077255497E-01
      0.00000000000000E+00   2.62626096280750E-10   0.00000000000000E+00   0.00000000000000E+00  -1.23396207590997E-09
     -1.68705677141844E-34  -1.23396207590997E-09   4.62799809440408E-18   0.00000000000000E+00   0.00000000000000E+00
      0.00000000000000E+00   0.00000000000000E+00   0.00000000000000E+00   0.00000000000000E+00   0.00000000000000E+00
      2.72262011019671E-18   0.00000000000000E+00   0.00000000000000E+00   0.00000000000000E+00   0.00000000000000E+00
      5.39015668716705E-17   3.06104131099831E-34   5.39015668716705E-17  -1.12957728533939E-17   8.38785386277484E-03
      8.38785359753979E-03   0.00000000000000E+00   0.00000000000000E+00   1.23396202200840E-09  -1.37398453957988E-34
      1.23396202200840E-09   3.94515464879312E-18
      1.77757077255497E-01
      0.00000000000000E+00   2.73474117158731E-10   0.00000000000000E+00   0.00000000000000E+00  -1.28490964203833E-09
     -1.69373850781291E-34  -1.28490964203833E-09   4.62779564182880E-18   0.00000000000000E+00   0.00000000000000E+00
      0.00000000000000E+00   0.00000000000000E+00   0.00000000000000E+00   0.00000000000000E+00   0.00000000000000E+00
      2.71711401076774E-18   0.00000000000000E+00   0.00000000000000E+00   0.00000000000000E+00   0.00000000000000E+00
      5.30508465196967E-17   3.03346072483454E-34   5.30508465196967E-17  -1.12955972577070E-17   8.88785386277484E-03
      8.88785358658484E-03   0.00000000000000E+00   0.00000000000000E+00   1.28490958898749E-09  -1.33972221702163E-34
      1.28490958898749E-09   3.95068760511042E-18
      1.87757077255497E-01
      0.00000000000000E+00   2.83885718208342E-10   0.00000000000000E+00   0.00000000000000E+00  -1.33380605588089E-09
     -2.14006767098668E-34  -1.33380605588089E-09   4.62759321291413E-18   0.00000000000000E+00   0.00000000000000E+00
      0.00000000000000E+00   0.00000000000000E+00   0.00000000000000E+00   0.00000000000000E+00   0.00000000000000E+00
      2.71160862816492E-18   0.00000000000000E+00   0.00000000000000E+00   0.00000000000000E+00   0.00000000000000E+00
      5.22193801469736E-17   3.68745048187366E-34   5.22193801469736E-17  -1.12954234244152E-17   9.38785386277484E-03
      9.38785357607071E-03   0.00000000000000E+00   0.00000000000000E+00   1.33380600366151E-09  -1.54738281088698E-34
      1.33380600366151E-09   3.95622158333621E-18
      1.97757077255497E-01
      0.00000000000000E+00   2.93876307234666E-10   0.00000000000000E+00   0.00000000000000E+00  -1.38072394432400E-09