DF-ISE text

Info {
  version   = 1.0
  type      = xyplot
  datasets  = [
    "time"
    "source OuterVoltage" "source InnerVoltage" "source QuasiFermiPotential" "source DisplacementCurrent" "source eCurrent"
    "source hCurrent" "source TotalCurrent" "source Charge" "gate OuterVoltage" "gate InnerVoltage"
    "gate QuasiFermiPotential" "gate DisplacementCurrent" "gate eCurrent" "gate hCurrent" "gate TotalCurrent"
    "gate Charge" "substrate OuterVoltage" "substrate InnerVoltage" "substrate QuasiFermiPotential" "substrate DisplacementCurrent"
    "substrate eCurrent" "substrate hCurrent" "substrate TotalCurrent" "substrate Charge" "drain OuterVoltage"
    "drain InnerVoltage" "drain QuasiFermiPotential" "drain DisplacementCurrent" "drain eCurrent" "drain hCurrent"
    "drain TotalCurrent" "drain Charge" ]
  functions = [
    Time
    OuterVoltage InnerVoltage QuasiFermiPotential DisplacementCurrent eCurrent
    hCurrent TotalCurrent Charge OuterVoltage InnerVoltage
    QuasiFermiPotential DisplacementCurrent eCurrent hCurrent TotalCurrent
    Charge OuterVoltage InnerVoltage QuasiFermiPotential DisplacementCurrent
    eCurrent hCurrent TotalCurrent Charge OuterVoltage
    InnerVoltage QuasiFermiPotential DisplacementCurrent eCurrent hCurrent
    TotalCurrent Charge ]
}

Data {
      0.00000000000000E+00
      0.00000000000000E+00   0.00000000000000E+00   0.00000000000000E+00   0.00000000000000E+00   1.96459653124855E-20
     -1.09347983250511E-34   1.96459653124854E-20   4.34953693928282E-18   0.00000000000000E+00   0.00000000000000E+00
      0.00000000000000E+00   0.00000000000000E+00   0.00000000000000E+00   0.00000000000000E+00   0.00000000000000E+00
      2.12618243523327E-18   0.00000000000000E+00   0.00000000000000E+00   0.00000000000000E+00   0.00000000000000E+00
     -1.61694301227091E-20   2.32251969839871E-34  -1.61694301227088E-20  -1.04706304417799E-17   0.00000000000000E+00
      0.00000000000000E+00   0.00000000000000E+00   0.00000000000000E+00  -3.47653518977645E-21  -1.22903986589361E-34
     -3.47653518977658E-21   3.99491106726381E-18
      0.00000000000000E+00
      0.00000000000000E+00   0.00000000000000E+00   0.00000000000000E+00   0.00000000000000E+00   2.34220180567189E-20
     -9.42446951353624E-35   2.34220180567188E-20   4.34797153619688E-18   0.00000000000000E+00   0.00000000000000E+00
      0.00000000000000E+00   0.00000000000000E+00   0.00000000000000E+00   0.00000000000000E+00   0.00000000000000E+00
      2.12124959045099E-18   0.00000000000000E+00   0.00000000000000E+00   0.00000000000000E+00   0.00000000000000E+00
      7.60352590498293E-20   2.12312427618141E-34   7.60352590498295E-20  -1.04628274726081E-17   0.00000000000000E+00
      0.00000000000000E+00   0.00000000000000E+00   0.00000000000000E+00  -9.94572771065482E-20  -1.18067732482778E-34
     -9.94572771065483E-20   3.99360634596027E-18
      1.00000000000000E-03
      0.00000000000000E+00   5.11755072049404E-11   0.00000000000000E+00   0.00000000000000E+00  -1.98261656312262E-10
     -1.05973573568887E-34  -1.98261656312262E-10   4.34760404754326E-18   0.00000000000000E+00   0.00000000000000E+00
      0.00000000000000E+00   0.00000000000000E+00   0.00000000000000E+00   0.00000000000000E+00   0.00000000000000E+00
      2.11102914772491E-18   0.00000000000000E+00   0.00000000000000E+00   0.00000000000000E+00   0.00000000000000E+00
     -6.94767645356174E-19   1.86687433342289E-34  -6.94767645356174E-19  -1.04623056102793E-17   8.60000000000000E-04
      8.59999948497269E-04   0.00000000000000E+00   0.00000000000000E+00   1.98261657007029E-10  -8.07138597734013E-35
      1.98261657007029E-10   4.00367241501111E-18
      2.08666666666667E-03
      0.00000000000000E+00   1.03361067166212E-10   0.00000000000000E+00   0.00000000000000E+00  -4.00418577245541E-10
     -9.26671873458723E-35  -4.00418577245541E-10   4.34720479478390E-18   0.00000000000000E+00   0.00000000000000E+00
      0.00000000000000E+00   0.00000000000000E+00   0.00000000000000E+00   0.00000000000000E+00   0.00000000000000E+00
      2.09992555912043E-18   0.00000000000000E+00   0.00000000000000E+00   0.00000000000000E+00   0.00000000000000E+00
      7.72740952536839E-20   1.91459676348562E-34   7.72740952536841E-20  -1.04617450826269E-17   1.79453333333333E-03
      1.79453322931210E-03   0.00000000000000E+00   0.00000000000000E+00   4.00418577168266E-10  -9.87924890026896E-35
      4.00418577168266E-10   4.01461472872257E-18
      3.27475555555556E-03
      0.00000000000000E+00   1.56403876217391E-10   0.00000000000000E+00   0.00000000000000E+00  -6.05872725245254E-10
     -1.09981267264701E-34  -6.05872725245254E-10   4.34676837871060E-18   0.00000000000000E+00   0.00000000000000E+00
      0.00000000000000E+00   0.00000000000000E+00   0.00000000000000E+00   0.00000000000000E+00   0.00000000000000E+00
      2.08778871909165E-18   0.00000000000000E+00   0.00000000000000E+00   0.00000000000000E+00   0.00000000000000E+00
     -9.51967497681427E-19   2.01610829313714E-34  -9.51967497681427E-19  -1.04611399705543E-17   2.81628977777778E-03
      2.81628962037597E-03   0.00000000000000E+00   0.00000000000000E+00   6.05872726197221E-10  -9.16295620490132E-35
      6.05872726197221E-10   4.02658287275201E-18
      4.57373274074074E-03
      0.00000000000000E+00   2.09818292786210E-10   0.00000000000000E+00   0.00000000000000E+00  -8.12739166609008E-10
     -8.98477849568043E-35  -8.12739166609008E-10   4.34629134876481E-18   0.00000000000000E+00   0.00000000000000E+00
      0.00000000000000E+00   0.00000000000000E+00   0.00000000000000E+00   0.00000000000000E+00   0.00000000000000E+00
      2.07452273429921E-18   0.00000000000000E+00   0.00000000000000E+00   0.00000000000000E+00   0.00000000000000E+00
     -3.56582952247115E-19   2.13599536269058E-34  -3.56582952247115E-19  -1.04604875074365E-17   3.93341015703704E-03
      3.93340994588136E-03   0.00000000000000E+00   0.00000000000000E+00   8.12739166965591E-10  -1.23751751312254E-34
      8.12739166965591E-10   4.03967342437244E-18
      5.99394779654321E-03
      0.00000000000000E+00   2.63079523466063E-10   0.00000000000000E+00   0.00000000000000E+00  -1.01898329050385E-09
     -8.67030470357906E-35  -1.01898329050385E-09   4.34576993519497E-18   0.00000000000000E+00   0.00000000000000E+00
      0.00000000000000E+00   0.00000000000000E+00   0.00000000000000E+00   0.00000000000000E+00   0.00000000000000E+00
      2.06002285112503E-18   0.00000000000000E+00   0.00000000000000E+00   0.00000000000000E+00   0.00000000000000E+00
     -3.96172414489980E-19   1.99226077745542E-34  -3.96172414489980E-19  -1.04597849080929E-17   5.15479510502716E-03
      5.15479484027245E-03   0.00000000000000E+00   0.00000000000000E+00   1.01898329090002E-09  -1.12523030709752E-34
      1.01898329090002E-09   4.05399212177294E-18
      7.54671625755391E-03
      0.00000000000000E+00   3.15624815142136E-10   0.00000000000000E+00   0.00000000000000E+00  -1.22242571196170E-09
     -7.76445928839305E-35  -1.22242571196170E-09   4.34520001963950E-18   0.00000000000000E+00   0.00000000000000E+00
      0.00000000000000E+00   0.00000000000000E+00   0.00000000000000E+00   0.00000000000000E+00   0.00000000000000E+00
      2.04417464081613E-18   0.00000000000000E+00   0.00000000000000E+00   0.00000000000000E+00   0.00000000000000E+00
     -4.11373846045719E-19   1.62058871452859E-34  -4.11373846045719E-19  -1.04590294034356E-17   6.49017598149636E-03
      6.49017566386374E-03   0.00000000000000E+00   0.00000000000000E+00   1.22242571237307E-09  -8.44142785689282E-35
      1.22242571237307E-09   4.06965474297999E-18
      9.24440977492561E-03
      0.00000000000000E+00   3.66861371265581E-10   0.00000000000000E+00   0.00000000000000E+00  -1.42077366553219E-09
     -1.10304819644544E-34  -1.42077366553219E-09   4.34457710302687E-18   0.00000000000000E+00   0.00000000000000E+00
      0.00000000000000E+00   0.00000000000000E+00   0.00000000000000E+00   0.00000000000000E+00   0.00000000000000E+00
      2.02685311144969E-18   0.00000000000000E+00   0.00000000000000E+00   0.00000000000000E+00   0.00000000000000E+00
      9.88337786180900E-21   1.93881117485570E-34   9.88337786180920E-21  -1.04582182852655E-17   7.95019240643603E-03
      7.95019203724327E-03   0.00000000000000E+00   0.00000000000000E+00   1.42077366552231E-09  -8.35762978410252E-35
      1.42077366552231E-09   4.08678807078898E-18
      1.11005546872520E-02
      0.00000000000000E+00   4.16182810615962E-10   0.00000000000000E+00   0.00000000000000E+00  -1.61168446983377E-09
     -1.25820114772878E-34  -1.61168446983377E-09   4.34389627044135E-18   0.00000000000000E+00   0.00000000000000E+00
      0.00000000000000E+00   0.00000000000000E+00   0.00000000000000E+00   0.00000000000000E+00   0.00000000000000E+00
      2.00792173631715E-18   0.00000000000000E+00   0.00000000000000E+00   0.00000000000000E+00   0.00000000000000E+00
      9.25622938977054E-19   2.13802864344435E-34   9.25622938977055E-19  -1.04573489579619E-17   9.54647703103672E-03
      9.54647661221168E-03   0.00000000000000E+00   0.00000000000000E+00   1.61168446890814E-09  -8.79827495715566E-35
      1.61168446890814E-09   4.10553095120340E-18
      1.31299397913955E-02
      0.00000000000000E+00   4.62988990920903E-10   0.00000000000000E+00   0.00000000000000E+00  -1.79284319365517E-09
     -9.30711406289312E-35  -1.79284319365517E-09   4.34315215272114E-18   0.00000000000000E+00   0.00000000000000E+00
      0.00000000000000E+00   0.00000000000000E+00   0.00000000000000E+00   0.00000000000000E+00   0.00000000000000E+00
      1.98723139367979E-18   0.00000000000000E+00   0.00000000000000E+00   0.00000000000000E+00   0.00000000000000E+00
      2.03074749999932E-19   1.74116209117650E-34   2.03074749999932E-19  -1.04564190012655E-17   1.12917482206002E-02
      1.12917477546744E-02   0.00000000000000E+00   0.00000000000000E+00   1.79284319345210E-09  -8.10450684887186E-35
      1.79284319345210E-09   4.12603545486458E-18
      1.53487341719258E-02
      0.00000000000000E+00   5.06711744864718E-10   0.00000000000000E+00   0.00000000000000E+00  -1.96206299020568E-09
     -7.35612274824406E-35  -1.96206299020568E-09   4.34233888442029E-18   0.00000000000000E+00   0.00000000000000E+00
      0.00000000000000E+00   0.00000000000000E+00   0.00000000000000E+00   0.00000000000000E+00   0.00000000000000E+00
      1.96461920753697E-18   0.00000000000000E+00   0.00000000000000E+00   0.00000000000000E+00   0.00000000000000E+00
      3.74004204717865E-19   1.45946853211919E-34   3.74004204717866E-19  -1.04554262431404E-17   1.31999113878562E-02
      1.31999108779331E-02   0.00000000000000E+00   0.00000000000000E+00   1.96206298983167E-09  -7.23856257294782E-35
      1.96206298983167E-09   4.14846815118313E-18
      1.77746160279722E-02
      0.00000000000000E+00   5.46844360393612E-10   0.00000000000000E+00   0.00000000000000E+00  -2.11739924052974E-09
     -1.03579730020944E-34  -2.11739924052974E-09   4.34145005788140E-18   0.00000000000000E+00   0.00000000000000E+00
      0.00000000000000E+00   0.00000000000000E+00   0.00000000000000E+00   0.00000000000000E+00   0.00000000000000E+00
      1.93990728214740E-18   0.00000000000000E+00   0.00000000000000E+00   0.00000000000000E+00   0.00000000000000E+00
     -1.89226841014452E-19   1.72579034455307E-34  -1.89226841014452E-19  -1.04543688469761E-17   1.52861697840561E-02
      1.52861692337488E-02   0.00000000000000E+00   0.00000000000000E+00   2.11739924071896E-09  -6.89993044343630E-35
      2.11739924071896E-09   4.17301150694727E-18
      2.04269135239163E-02
      0.00000000000000E+00   5.82975848079899E-10   0.00000000000000E+00   0.00000000000000E+00  -2.25728257827981E-09
     -7.24585597700165E-35  -2.25728257827981E-09   4.34047867284874E-18   0.00000000000000E+00   0.00000000000000E+00
      0.00000000000000E+00   0.00000000000000E+00   0.00000000000000E+00   0.00000000000000E+00   0.00000000000000E+00
      1.91290131612346E-18   0.00000000000000E+00   0.00000000000000E+00   0.00000000000000E+00   0.00000000000000E+00
      4.28881657714795E-19   1.28712649640790E-34   4.28881657714796E-19  -1.04532454085013E-17   1.75671456305680E-02
      1.75671450439033E-02   0.00000000000000E+00   0.00000000000000E+00   2.25728257785093E-09  -5.62540898707730E-35
      2.25728257785093E-09   4.19986541952909E-18
      2.33267587861485E-02
      0.00000000000000E+00   6.14826613061301E-10   0.00000000000000E+00   0.00000000000000E+00  -2.38065705764679E-09
     -1.00739009841156E-34  -2.38065705764679E-09   4.33941708131470E-18   0.00000000000000E+00   0.00000000000000E+00
      0.00000000000000E+00   0.00000000000000E+00   0.00000000000000E+00   0.00000000000000E+00   0.00000000000000E+00
      1.88338908743150E-18   0.00000000000000E+00   0.00000000000000E+00   0.00000000000000E+00   0.00000000000000E+00
      2.47613987271450E-19   1.70803401381291E-34   2.47613987271450E-19  -1.04520550673657E-17   2.00610125560877E-02
      2.00610119373742E-02   0.00000000000000E+00   0.00000000000000E+00   2.38065705739918E-09  -7.00643915401349E-35
      2.38065705739918E-09   4.22924889861949E-18
      2.64972562728556E-02
      0.00000000000000E+00   6.42286848924278E-10   0.00000000000000E+00   0.00000000000000E+00  -2.48712752725064E-09
     -1.28653378784223E-34  -2.48712752725064E-09   4.33825692699182E-18   0.00000000000000E+00   0.00000000000000E+00
      0.00000000000000E+00   0.00000000000000E+00   0.00000000000000E+00   0.00000000000000E+00   0.00000000000000E+00
      1.85113878986514E-18   0.00000000000000E+00   0.00000000000000E+00   0.00000000000000E+00   0.00000000000000E+00
      3.75745638516516E-19   1.70817853265332E-34   3.75745638516516E-19  -1.04507976258452E-17   2.27876403946559E-02
      2.27876397483126E-02   0.00000000000000E+00   0.00000000000000E+00   2.48712752687490E-09  -4.21644744811092E-35
      2.48712752687490E-09   4.26140190898826E-18
      2.99636668583222E-02
      0.00000000000000E+00   6.65447482886390E-10   0.00000000000000E+00   0.00000000000000E+00  -2.57707960358025E-09
     -1.09361495547176E-34  -2.57707960358025E-09   4.33698907893289E-18   0.00000000000000E+00   0.00000000000000E+00
      0.00000000000000E+00   0.00000000000000E+00   0.00000000000000E+00   0.00000000000000E+00   0.00000000000000E+00
      1.81589721471172E-18   0.00000000000000E+00   0.00000000000000E+00   0.00000000000000E+00   0.00000000000000E+00
      4.99376161440741E-20   1.47977062104036E-34   4.99376161440742E-20  -1.04494736839500E-17   2.57687534981571E-02
      2.57687528285127E-02   0.00000000000000E+00   0.00000000000000E+00   2.57707960353032E-09  -3.86155665568599E-35
      2.57707960353032E-09   4.29658739030536E-18
      3.37536090984323E-02
      0.00000000000000E+00   6.84624332817633E-10   0.00000000000000E+00   0.00000000000000E+00  -2.65177115568316E-09
     -8.52617998139964E-35  -2.65177115568316E-09   4.33560355884891E-18   0.00000000000000E+00   0.00000000000000E+00
      0.00000000000000E+00   0.00000000000000E+00   0.00000000000000E+00   0.00000000000000E+00   0.00000000000000E+00
      1.77738775580822E-18   0.00000000000000E+00   0.00000000000000E+00   0.00000000000000E+00   0.00000000000000E+00
      5.23051148330146E-20   1.22548787475195E-34   5.23051148330147E-20  -1.04480847849855E-17   2.90281038246517E-02
      2.90281031357184E-02   0.00000000000000E+00   0.00000000000000E+00   2.65177115563086E-09  -3.72869876611985E-35
      2.65177115563086E-09   4.33509347032831E-18
      3.78972792809526E-02
      0.00000000000000E+00   7.00366550462191E-10   0.00000000000000E+00   0.00000000000000E+00  -2.71336304692530E-09
     -6.66025158615120E-35  -2.71336304692530E-09   4.33408946126405E-18   0.00000000000000E+00   0.00000000000000E+00
      0.00000000000000E+00   0.00000000000000E+00   0.00000000000000E+00   0.00000000000000E+00   0.00000000000000E+00
      1.73530821695141E-18   0.00000000000000E+00   0.00000000000000E+00   0.00000000000000E+00   0.00000000000000E+00
      1.69923095873001E-19   1.01926274653971E-34   1.69923095873001E-19  -1.04466335642736E-17   3.25916601816192E-02
      3.25916594768587E-02   0.00000000000000E+00   0.00000000000000E+00   2.71336304675538E-09  -3.53237587924588E-35
      2.71336304675538E-09   4.37723588605809E-18
      4.24276920138415E-02
      0.00000000000000E+00   7.13438722847375E-10   0.00000000000000E+00   0.00000000000000E+00  -2.76484764258831E-09
     -8.07019086588120E-35  -2.76484764258831E-09   4.33243486634804E-18   0.00000000000000E+00   0.00000000000000E+00
      0.00000000000000E+00   0.00000000000000E+00   0.00000000000000E+00   0.00000000000000E+00   0.00000000000000E+00
      1.68932840445969E-18   0.00000000000000E+00   0.00000000000000E+00   0.00000000000000E+00   0.00000000000000E+00
      1.43087049323718E-21   1.06922767937436E-34   1.43087049323728E-21  -1.04451239023490E-17   3.64878151319037E-02
      3.64878144140115E-02   0.00000000000000E+00   0.00000000000000E+00   2.76484764258688E-09  -2.62208592786240E-35
      2.76484764258688E-09   4.42336063154126E-18
      4.73809432684667E-02
      0.00000000000000E+00   7.24760931996037E-10   0.00000000000000E+00   0.00000000000000E+00  -2.80981319789647E-09
     -8.62323673364779E-35  -2.80981319789647E-09   4.33062674530590E-18   0.00000000000000E+00   0.00000000000000E+00
      0.00000000000000E+00   0.00000000000000E+00   0.00000000000000E+00   0.00000000000000E+00   0.00000000000000E+00
      1.63908749359628E-18   0.00000000000000E+00   0.00000000000000E+00   0.00000000000000E+00   0.00000000000000E+00
     -1.85525237998823E-18   1.11212660752382E-34  -1.85525237998823E-18  -1.04435610936535E-17   4.07476112108814E-02
      4.07476104816311E-02   0.00000000000000E+00   0.00000000000000E+00   2.80981319975173E-09  -2.49802934159039E-35
      2.80981319975173E-09   4.47384685475134E-18
      5.27964979735236E-02
      0.00000000000000E+00   7.35296289654275E-10   0.00000000000000E+00   0.00000000000000E+00  -2.85200158138287E-09
     -1.02153252587287E-34  -2.85200158138287E-09   4.32865085771401E-18   0.00000000000000E+00   0.00000000000000E+00
      0.00000000000000E+00   0.00000000000000E+00   0.00000000000000E+00   0.00000000000000E+00   0.00000000000000E+00
      1.58419113851333E-18   0.00000000000000E+00   0.00000000000000E+00   0.00000000000000E+00   0.00000000000000E+00
     -2.97336474102102E-18   1.23684346958226E-34  -2.97336474102102E-18  -1.04419520138489E-17   4.54049882572303E-02
      4.54049875174308E-02   0.00000000000000E+00   0.00000000000000E+00   2.85200158435624E-09  -2.15310943709395E-35
      2.85200158435624E-09   4.52911001762160E-18
      5.87175044510525E-02
      0.00000000000000E+00   7.45920190277804E-10   0.00000000000000E+00   0.00000000000000E+00  -2.89479983985829E-09
     -6.04048859693549E-35  -2.89479983985829E-09   4.32649163999171E-18   0.00000000000000E+00   0.00000000000000E+00
      0.00000000000000E+00   0.00000000000000E+00   0.00000000000000E+00   0.00000000000000E+00   0.00000000000000E+00
      1.52420832572500E-18   0.00000000000000E+00   0.00000000000000E+00   0.00000000000000E+00   0.00000000000000E+00
     -4.26926918819232E-19   7.47034905698980E-35  -4.26926918819232E-19  -1.04403053152036E-17   5.04970538279052E-02
      5.04970530774881E-02   0.00000000000000E+00   0.00000000000000E+00   2.89479984028522E-09  -1.42986046005431E-35
      2.89479984028522E-09   4.58960534948682E-18
      6.51516648233006E-02
      0.00000000000000E+00   7.57272133928207E-10   0.00000000000000E+00   0.00000000000000E+00  -2.94068075162165E-09
     -7.25262387795356E-35  -2.94068075162165E-09   4.32414646797472E-18   0.00000000000000E+00   0.00000000000000E+00
      0.00000000000000E+00   0.00000000000000E+00   0.00000000000000E+00   0.00000000000000E+00   0.00000000000000E+00
      1.45906746859035E-18   0.00000000000000E+00   0.00000000000000E+00   0.00000000000000E+00   0.00000000000000E+00
      4.34310855737599E-19   8.95132346075746E-35   4.34310855737599E-19  -1.04386414717173E-17   5.60304317480385E-02
      5.60304309862975E-02   0.00000000000000E+00   0.00000000000000E+00   2.94068075118734E-09  -1.69869958280390E-35
      2.94068075118734E-09   4.65542753515225E-18
      7.21434524278101E-02
      0.00000000000000E+00   7.69836600666528E-10   0.00000000000000E+00   0.00000000000000E+00  -2.99153893954392E-09
     -9.28658870208142E-35  -2.99153893954392E-09   4.32159932650577E-18   0.00000000000000E+00   0.00000000000000E+00
      0.00000000000000E+00   0.00000000000000E+00   0.00000000000000E+00   0.00000000000000E+00   0.00000000000000E+00
      1.38832481922320E-18   0.00000000000000E+00   0.00000000000000E+00   0.00000000000000E+00   0.00000000000000E+00
     -5.47341010843714E-19   1.04530190989349E-34  -5.47341010843714E-19  -1.04369726721127E-17   6.20433690879167E-02
      6.20433683136654E-02   0.00000000000000E+00   0.00000000000000E+00   2.99153894009126E-09  -1.16643039685351E-35
      2.99153894009126E-09   4.72704852638370E-18
      7.97411949580438E-02
      0.00000000000000E+00   7.83844438064977E-10   0.00000000000000E+00   0.00000000000000E+00  -3.04826740591932E-09
     -8.02586732580297E-35  -3.04826740591932E-09   4.31883283267789E-18   0.00000000000000E+00   0.00000000000000E+00
      0.00000000000000E+00   0.00000000000000E+00   0.00000000000000E+00   0.00000000000000E+00   0.00000000000000E+00
      1.31149837546065E-18   0.00000000000000E+00   0.00000000000000E+00   0.00000000000000E+00   0.00000000000000E+00
      4.24733886954066E-19   8.96396470231162E-35   4.24733886954066E-19  -1.04353132640933E-17   6.85774276639177E-02
      6.85774268757400E-02   0.00000000000000E+00   0.00000000000000E+00   3.04826740549458E-09  -9.38097376508649E-36
      3.04826740549458E-09   4.80498205595479E-18
      8.79974085075645E-02
      0.00000000000000E+00   7.99349174906304E-10   0.00000000000000E+00   0.00000000000000E+00  -3.11107321522710E-09
     -1.04213984633054E-34  -3.11107321522710E-09   4.31582811573319E-18   0.00000000000000E+00   0.00000000000000E+00
      0.00000000000000E+00   0.00000000000000E+00   0.00000000000000E+00   0.00000000000000E+00   0.00000000000000E+00
      1.22806455716845E-18   0.00000000000000E+00   0.00000000000000E+00   0.00000000000000E+00   0.00000000000000E+00
     -1.40900200577360E-19   1.12091010308301E-34  -1.40900200577360E-19  -1.04336799166250E-17   7.56777713165054E-02
      7.56777705129226E-02   0.00000000000000E+00   0.00000000000000E+00   3.11107321536800E-09  -7.87702567524651E-36
      3.11107321536800E-09   4.88978724372331E-18
      9.69691605647102E-02
      0.00000000000000E+00   8.16396858801936E-10   0.00000000000000E+00   0.00000000000000E+00  -3.18018025880708E-09
     -1.11786868292538E-34  -3.18018025880708E-09   4.31256467963712E-18   0.00000000000000E+00   0.00000000000000E+00
      0.00000000000000E+00   0.00000000000000E+00   0.00000000000000E+00   0.00000000000000E+00   0.00000000000000E+00
      1.13745457800165E-18   0.00000000000000E+00   0.00000000000000E+00   0.00000000000000E+00   0.00000000000000E+00
     -1.25748759054967E-20   1.17023170404620E-34  -1.25748759054966E-20  -1.04320917565244E-17   8.33934780856508E-02
      8.33934772651367E-02   0.00000000000000E+00   0.00000000000000E+00   3.18018025881965E-09  -5.23630211208176E-36
      3.18018025881965E-09   4.98207249888563E-18
      1.06718464466809E-01
      0.00000000000000E+00   8.35110650761294E-10   0.00000000000000E+00   0.00000000000000E+00  -3.25613434236647E-09
     -7.94663862019377E-35  -3.25613434236647E-09   4.30902026517909E-18   0.00000000000000E+00   0.00000000000000E+00
      0.00000000000000E+00   0.00000000000000E+00   0.00000000000000E+00   0.00000000000000E+00   0.00000000000000E+00
      1.03905054003293E-18   0.00000000000000E+00   0.00000000000000E+00   0.00000000000000E+00   0.00000000000000E+00
     -2.83968757696531E-19   8.32006965170204E-35  -2.83968757696531E-19  -1.04305705471209E-17   9.17778794414554E-02
      9.17778786023733E-02   0.00000000000000E+00   0.00000000000000E+00   3.25613434265044E-09  -3.73431031508269E-36
      3.25613434265044E-09   5.08249974190883E-18
      1.16718464466809E-01
      0.00000000000000E+00   8.54524027794860E-10   0.00000000000000E+00   0.00000000000000E+00  -3.33503456424621E-09
     -9.65141610455014E-35  -3.33503456424621E-09   4.30538658287413E-18   0.00000000000000E+00   0.00000000000000E+00
      0.00000000000000E+00   0.00000000000000E+00   0.00000000000000E+00   0.00000000000000E+00   0.00000000000000E+00
      9.38174044848517E-19   0.00000000000000E+00   0.00000000000000E+00   0.00000000000000E+00   0.00000000000000E+00
      7.09660502983006E-19   9.94774490233626E-35   7.09660502983006E-19  -1.04292152814505E-17   1.00377879441455E-01
      1.00377878583129E-01   0.00000000000000E+00   0.00000000000000E+00   3.33503456353655E-09  -2.96328797786116E-36
      3.33503456353655E-09   5.18565465372784E-18
      1.26718464466809E-01
      0.00000000000000E+00   8.74202457607312E-10   0.00000000000000E+00   0.00000000000000E+00  -3.41511936705955E-09
     -1.03517447340544E-34  -3.41511936705955E-09   4.30175468547936E-18   0.00000000000000E+00   0.00000000000000E+00
      0.00000000000000E+00   0.00000000000000E+00   0.00000000000000E+00   0.00000000000000E+00   0.00000000000000E+00
      8.37351137759762E-19   0.00000000000000E+00   0.00000000000000E+00   0.00000000000000E+00   0.00000000000000E+00
      5.92539137829490E-19   1.05685330595033E-34   5.92539137829490E-19  -1.04280524051092E-17   1.08977879441455E-01
      1.08977878563617E-01   0.00000000000000E+00   0.00000000000000E+00   3.41511936646701E-09  -2.16788325448880E-36
      3.41511936646701E-09   5.28894658187003E-18
      1.36718464466809E-01
      0.00000000000000E+00   8.94191971111033E-10   0.00000000000000E+00   0.00000000000000E+00  -3.49657700764652E-09
     -8.30346378225679E-35  -3.49657700764652E-09   4.29812447055017E-18   0.00000000000000E+00   0.00000000000000E+00
      0.00000000000000E+00   0.00000000000000E+00   0.00000000000000E+00   0.00000000000000E+00   0.00000000000000E+00
      7.36577385658939E-19   0.00000000000000E+00   0.00000000000000E+00   0.00000000000000E+00   0.00000000000000E+00
      6.50467834938589E-19   8.48235733846732E-35   6.50467834938589E-19  -1.04270680349068E-17   1.17577879441455E-01
      1.17577878543783E-01   0.00000000000000E+00   0.00000000000000E+00   3.49657700699605E-09  -1.78893556210531E-36
      3.49657700699605E-09   5.39236617869768E-18
      1.46718464466809E-01
      0.00000000000000E+00   9.14526933081333E-10   0.00000000000000E+00   0.00000000000000E+00  -3.57954561291052E-09
     -1.02391817094351E-34  -3.57954561291052E-09   4.29449584346644E-18   0.00000000000000E+00   0.00000000000000E+00
      0.00000000000000E+00   0.00000000000000E+00   0.00000000000000E+00   0.00000000000000E+00   0.00000000000000E+00
      6.35848898312992E-19   0.00000000000000E+00   0.00000000000000E+00   0.00000000000000E+00   0.00000000000000E+00
     -2.80091077781563E-19   1.03959963573526E-34  -2.80091077781563E-19  -1.04262495718337E-17   1.26177879441455E-01
      1.26177878523593E-01   0.00000000000000E+00   0.00000000000000E+00   3.57954561319062E-09  -1.56814647917542E-36
      3.57954561319062E-09   5.49590483005433E-18
      1.56718464466809E-01
      0.00000000000000E+00   9.35226372077858E-10   0.00000000000000E+00   0.00000000000000E+00  -3.66409997888564E-09
     -8.22046992343390E-35  -3.66409997888564E-09   4.29086871846683E-18   0.00000000000000E+00   0.00000000000000E+00
      0.00000000000000E+00   0.00000000000000E+00   0.00000000000000E+00   0.00000000000000E+00   0.00000000000000E+00
      5.35162266396782E-19   0.00000000000000E+00   0.00000000000000E+00   0.00000000000000E+00   0.00000000000000E+00
      9.59757346437281E-20   8.31991995278862E-35   9.59757346437282E-20  -1.04255855700276E-17   1.34777879441455E-01
      1.34777878503039E-01   0.00000000000000E+00   0.00000000000000E+00   3.66409997878966E-09  -9.94500293547189E-37
      3.66409997878966E-09   5.59955458516396E-18
      1.66718464466809E-01
      0.00000000000000E+00   9.56295756109507E-10   0.00000000000000E+00   0.00000000000000E+00  -3.75026127061894E-09
     -1.02952700576046E-34  -3.75026127061894E-09   4.28724302138836E-18   0.00000000000000E+00   0.00000000000000E+00
      0.00000000000000E+00   0.00000000000000E+00   0.00000000000000E+00   0.00000000000000E+00   0.00000000000000E+00
      4.34514532639772E-19   0.00000000000000E+00   0.00000000000000E+00   0.00000000000000E+00   0.00000000000000E+00
     -2.55714222965593E-19   1.03569276730293E-34  -2.55714222965593E-19  -1.04250656563240E-17   1.43377879441455E-01
      1.43377878482124E-01   0.00000000000000E+00   0.00000000000000E+00   3.75026127087465E-09  -6.16576154247639E-37
      3.75026127087465E-09   5.70330810229587E-18
      1.76718464466809E-01
      0.00000000000000E+00   9.77732602585201E-10   0.00000000000000E+00   0.00000000000000E+00  -3.83802019537342E-09
     -8.87960246300800E-35  -3.83802019537342E-09   4.28361868946998E-18   0.00000000000000E+00   0.00000000000000E+00
      0.00000000000000E+00   0.00000000000000E+00   0.00000000000000E+00   0.00000000000000E+00   0.00000000000000E+00
      3.33903125107022E-19   0.00000000000000E+00   0.00000000000000E+00   0.00000000000000E+00   0.00000000000000E+00
      1.87926248227267E-19   8.92984771381339E-35   1.87926248227267E-19  -1.04246804115036E-17   1.51977879441455E-01
      1.51977878460858E-01   0.00000000000000E+00   0.00000000000000E+00   3.83802019518550E-09  -5.02452508053829E-37
      3.83802019518550E-09   5.80715859692656E-18
      1.86718464466809E-01
      0.00000000000000E+00   9.99532712623319E-10   0.00000000000000E+00   0.00000000000000E+00  -3.92736220204784E-09