DF-ISE text

Info {
  version   = 1.0
  type      = xyplot
  datasets  = [
    "time"
    "source OuterVoltage" "source InnerVoltage" "source QuasiFermiPotential" "source DisplacementCurrent" "source eCurrent"
    "source hCurrent" "source TotalCurrent" "source Charge" "gate OuterVoltage" "gate InnerVoltage"
    "gate QuasiFermiPotential" "gate DisplacementCurrent" "gate eCurrent" "gate hCurrent" "gate TotalCurrent"
    "gate Charge" "substrate OuterVoltage" "substrate InnerVoltage" "substrate QuasiFermiPotential" "substrate DisplacementCurrent"
    "substrate eCurrent" "substrate hCurrent" "substrate TotalCurrent" "substrate Charge" "drain OuterVoltage"
    "drain InnerVoltage" "drain QuasiFermiPotential" "drain DisplacementCurrent" "drain eCurrent" "drain hCurrent"
    "drain TotalCurrent" "drain Charge" ]
  functions = [
    Time
    OuterVoltage InnerVoltage QuasiFermiPotential DisplacementCurrent eCurrent
    hCurrent TotalCurrent Charge OuterVoltage InnerVoltage
    QuasiFermiPotential DisplacementCurrent eCurrent hCurrent TotalCurrent
    Charge OuterVoltage InnerVoltage QuasiFermiPotential DisplacementCurrent
    eCurrent hCurrent TotalCurrent Charge OuterVoltage
    InnerVoltage QuasiFermiPotential DisplacementCurrent eCurrent hCurrent
    TotalCurrent Charge ]
}

Data {
      0.00000000000000E+00
      0.00000000000000E+00   0.00000000000000E+00   0.00000000000000E+00   0.00000000000000E+00   4.83378112753419E-21
      4.82082055268978E-34   4.83378112753467E-21   4.63551553854740E-18   0.00000000000000E+00   0.00000000000000E+00
      0.00000000000000E+00   0.00000000000000E+00   0.00000000000000E+00   0.00000000000000E+00   0.00000000000000E+00
      1.86447107459781E-18   0.00000000000000E+00   0.00000000000000E+00   0.00000000000000E+00   0.00000000000000E+00
      3.99049034910356E-22  -9.23910409766531E-34   3.99049034909432E-22  -1.08187200817095E-17   0.00000000000000E+00
      0.00000000000000E+00   0.00000000000000E+00   0.00000000000000E+00  -5.23283016244455E-21   4.41828354497552E-34
     -5.23283016244411E-21   4.31873346856431E-18
      0.00000000000000E+00
      0.00000000000000E+00   0.00000000000000E+00   0.00000000000000E+00   0.00000000000000E+00   6.71824364543182E-20
      4.73681328586753E-34   6.71824364543187E-20   4.63399315748206E-18   0.00000000000000E+00   0.00000000000000E+00
      0.00000000000000E+00   0.00000000000000E+00   0.00000000000000E+00   0.00000000000000E+00   0.00000000000000E+00
      1.85984096790928E-18   0.00000000000000E+00   0.00000000000000E+00   0.00000000000000E+00   0.00000000000000E+00
     -3.61984665721151E-19  -9.17467152161963E-34  -3.61984665721152E-19  -1.08113010801972E-17   0.00000000000000E+00
      0.00000000000000E+00   0.00000000000000E+00   0.00000000000000E+00   2.94802229266833E-19   4.43785823575209E-34
      2.94802229266833E-19   4.31746695480585E-18
      1.00000000000000E-03
      0.00000000000000E+00   5.36403015240870E-11   0.00000000000000E+00   0.00000000000000E+00  -2.52985582577029E-10
      4.82369517740780E-34  -2.52985582577029E-10   4.63354914269731E-18   0.00000000000000E+00   0.00000000000000E+00
      0.00000000000000E+00   0.00000000000000E+00   0.00000000000000E+00   0.00000000000000E+00   0.00000000000000E+00
      1.84885384548465E-18   0.00000000000000E+00   0.00000000000000E+00   0.00000000000000E+00   0.00000000000000E+00
      2.70403339281857E-20  -9.21485958932136E-34   2.70403339281848E-20  -1.08106390244381E-17   8.60000000000000E-04
      8.59999946222876E-04   0.00000000000000E+00   0.00000000000000E+00   2.52985582549989E-10   4.39116441191354E-34
      2.52985582549989E-10   4.32823603625611E-18
      2.08666666666667E-03
      0.00000000000000E+00   1.08235155361040E-10   0.00000000000000E+00   0.00000000000000E+00  -5.10456098447846E-10
      4.65203009168564E-34  -5.10456098447846E-10   4.63306677090543E-18   0.00000000000000E+00   0.00000000000000E+00
      0.00000000000000E+00   0.00000000000000E+00   0.00000000000000E+00   0.00000000000000E+00   0.00000000000000E+00
      1.83691727066236E-18   0.00000000000000E+00   0.00000000000000E+00   0.00000000000000E+00   0.00000000000000E+00
      1.94740893468597E-15  -8.83033742240154E-34   1.94740893468597E-15  -1.08099269103680E-17   1.79453333333333E-03
      1.79453322482239E-03   0.00000000000000E+00   0.00000000000000E+00   5.10454151038911E-10   4.17830733071589E-34
      5.10454151038911E-10   4.33994286880021E-18
      3.28200000000000E-03
      0.00000000000000E+00   1.63919316551914E-10   0.00000000000000E+00   0.00000000000000E+00  -7.73040499338900E-10
      4.78460847380331E-34  -7.73040499338900E-10   4.63253631022311E-18   0.00000000000000E+00   0.00000000000000E+00
      0.00000000000000E+00   0.00000000000000E+00   0.00000000000000E+00   0.00000000000000E+00   0.00000000000000E+00
      1.82379031922573E-18   0.00000000000000E+00   0.00000000000000E+00   0.00000000000000E+00   0.00000000000000E+00
      8.95544840519691E-20  -8.64732133586416E-34   8.95544840519682E-20  -1.08091522968265E-17   2.82252000000000E-03
      2.82251983566359E-03   0.00000000000000E+00   0.00000000000000E+00   7.73040499249345E-10   3.86271286206084E-34
      7.73040499249345E-10   4.35282566737767E-18
      4.58889777777778E-03
      0.00000000000000E+00   2.19812029476910E-10   0.00000000000000E+00   0.00000000000000E+00  -1.03658225463596E-09
      4.69191403132315E-34  -1.03658225463596E-09   4.63195651536874E-18   0.00000000000000E+00   0.00000000000000E+00
      0.00000000000000E+00   0.00000000000000E+00   0.00000000000000E+00   0.00000000000000E+00   0.00000000000000E+00
      1.80944206111020E-18   0.00000000000000E+00   0.00000000000000E+00   0.00000000000000E+00   0.00000000000000E+00
     -1.98667265254553E-19  -8.57547342795433E-34  -1.98667265254553E-19  -1.08083157100743E-17   3.94645208888889E-03
      3.94645186851809E-03   0.00000000000000E+00   0.00000000000000E+00   1.03658225483463E-09   3.88355939663118E-34
      1.03658225483463E-09   4.36691713359535E-18
      6.01777268148148E-03
      0.00000000000000E+00   2.75341681262287E-10   0.00000000000000E+00   0.00000000000000E+00  -1.29838423108948E-09
      4.77863973400408E-34  -1.29838423108948E-09   4.63132281271535E-18   0.00000000000000E+00   0.00000000000000E+00
      0.00000000000000E+00   0.00000000000000E+00   0.00000000000000E+00   0.00000000000000E+00   0.00000000000000E+00
      1.79375919022074E-18   0.00000000000000E+00   0.00000000000000E+00   0.00000000000000E+00   0.00000000000000E+00
     -8.10941580385783E-20  -8.44439751057798E-34  -8.10941580385792E-20  -1.08074132275909E-17   5.17528450607408E-03
      5.17528423003308E-03   0.00000000000000E+00   0.00000000000000E+00   1.29838423117058E-09   3.66575777657390E-34
      1.29838423117058E-09   4.38233122465480E-18
      7.58000924286420E-03
      0.00000000000000E+00   3.29904166468752E-10   0.00000000000000E+00   0.00000000000000E+00  -1.55559880014909E-09
      4.61635893431371E-34  -1.55559880014909E-09   4.63063020652959E-18   0.00000000000000E+00   0.00000000000000E+00
      0.00000000000000E+00   0.00000000000000E+00   0.00000000000000E+00   0.00000000000000E+00   0.00000000000000E+00
      1.77661793767457E-18   0.00000000000000E+00   0.00000000000000E+00   0.00000000000000E+00   0.00000000000000E+00
      2.28956361971501E-20  -7.99767515591060E-34   2.28956361971494E-20  -1.08064408802425E-17   6.51880794886321E-03
      6.51880761812190E-03   0.00000000000000E+00   0.00000000000000E+00   1.55559880012620E-09   3.38131622159688E-34
      1.55559880012620E-09   4.39919273603829E-18
      9.28805454997597E-03
      0.00000000000000E+00   3.82874877809199E-10   0.00000000000000E+00   0.00000000000000E+00  -1.80528424644567E-09
      4.85286433883335E-34  -1.80528424644567E-09   4.62987324013636E-18   0.00000000000000E+00   0.00000000000000E+00
      0.00000000000000E+00   0.00000000000000E+00   0.00000000000000E+00   0.00000000000000E+00   0.00000000000000E+00
      1.75788310982296E-18   0.00000000000000E+00   0.00000000000000E+00   0.00000000000000E+00   0.00000000000000E+00
     -1.45773628733899E-19  -8.11230282721245E-34  -1.45773628733900E-19  -1.08053946957085E-17   7.98772691297934E-03
      7.98772652913371E-03   0.00000000000000E+00   0.00000000000000E+00   1.80528424659145E-09   3.25943848837908E-34
      1.80528424659145E-09   4.41763834574918E-18
      1.11555174190848E-02
      0.00000000000000E+00   4.33625487731379E-10   0.00000000000000E+00   0.00000000000000E+00  -2.04448474386055E-09
      4.80563572511843E-34  -2.04448474386055E-09   4.62904595354884E-18   0.00000000000000E+00   0.00000000000000E+00
      0.00000000000000E+00   0.00000000000000E+00   0.00000000000000E+00   0.00000000000000E+00   0.00000000000000E+00
      1.73740704031798E-18   0.00000000000000E+00   0.00000000000000E+00   0.00000000000000E+00   0.00000000000000E+00
     -8.93908135751601E-20  -7.81770587114470E-34  -8.93908135751609E-20  -1.08042707553692E-17   9.59374498041296E-03
      9.59374454568886E-03   0.00000000000000E+00   0.00000000000000E+00   2.04448474394994E-09   3.01207014602627E-34
      2.04448474394994E-09   4.43781776150231E-18
      1.31972768226439E-02
      0.00000000000000E+00   4.81547790426439E-10   0.00000000000000E+00   0.00000000000000E+00  -2.27034296862843E-09
      4.78303576358317E-34  -2.27034296862843E-09   4.62814183709089E-18   0.00000000000000E+00   0.00000000000000E+00
      0.00000000000000E+00   0.00000000000000E+00   0.00000000000000E+00   0.00000000000000E+00   0.00000000000000E+00
      1.71502844418875E-18   0.00000000000000E+00   0.00000000000000E+00   0.00000000000000E+00   0.00000000000000E+00
     -8.52029891708853E-20  -7.61802265672902E-34  -8.52029891708861E-20  -1.08030652609065E-17   1.13496580674737E-02
      1.13496575847068E-02   0.00000000000000E+00   0.00000000000000E+00   2.27034296871363E-09   2.83498689314584E-34
      2.27034296871363E-09   4.45989497962684E-18
      1.54296004372017E-02
      0.00000000000000E+00   5.26082551035461E-10   0.00000000000000E+00   0.00000000000000E+00  -2.48023625483738E-09
      4.56616050118060E-34  -2.48023625483738E-09   4.62715378067959E-18   0.00000000000000E+00   0.00000000000000E+00
      0.00000000000000E+00   0.00000000000000E+00   0.00000000000000E+00   0.00000000000000E+00   0.00000000000000E+00
      1.69057116572618E-18   0.00000000000000E+00   0.00000000000000E+00   0.00000000000000E+00   0.00000000000000E+00
      1.02370269857984E-19  -7.30831319789899E-34   1.02370269857984E-19  -1.08017746134788E-17   1.32694563759935E-02
      1.32694558485800E-02   0.00000000000000E+00   0.00000000000000E+00   2.48023625473500E-09   2.74215269671838E-34
      2.48023625473500E-09   4.48404966707307E-18
      1.78702742557850E-02
      0.00000000000000E+00   5.66752120490250E-10   0.00000000000000E+00   0.00000000000000E+00  -2.67193098180311E-09
      4.65143656355749E-34  -2.67193098180311E-09   4.62607401831010E-18   0.00000000000000E+00   0.00000000000000E+00
      0.00000000000000E+00   0.00000000000000E+00   0.00000000000000E+00   0.00000000000000E+00   0.00000000000000E+00
      1.66384281089735E-18   0.00000000000000E+00   0.00000000000000E+00   0.00000000000000E+00   0.00000000000000E+00
     -1.59200021186685E-20  -7.26469318068713E-34  -1.59200021186692E-20  -1.08003955077952E-17   1.53684358599751E-02
      1.53684352917901E-02   0.00000000000000E+00   0.00000000000000E+00   2.67193098181904E-09   2.61325661712964E-34
      2.67193098181904E-09   4.51047867858770E-18
      2.05387442974361E-02
      0.00000000000000E+00   6.03196632298853E-10   0.00000000000000E+00   0.00000000000000E+00  -2.84375316586365E-09
      4.60119463633774E-34  -2.84375316586365E-09   4.62489406726010E-18   0.00000000000000E+00   0.00000000000000E+00
      0.00000000000000E+00   0.00000000000000E+00   0.00000000000000E+00   0.00000000000000E+00   0.00000000000000E+00
      1.63463325142889E-18   0.00000000000000E+00   0.00000000000000E+00   0.00000000000000E+00   0.00000000000000E+00
     -2.32851316041615E-19  -7.00074493549048E-34  -2.32851316041616E-19  -1.07989250402342E-17   1.76633200957950E-02
      1.76633194910746E-02   0.00000000000000E+00   0.00000000000000E+00   2.84375316609650E-09   2.39955029915273E-34
      2.84375316609650E-09   4.53939772154517E-18
      2.34562715429746E-02
      0.00000000000000E+00   6.35211809933682E-10   0.00000000000000E+00   0.00000000000000E+00  -2.99476634104841E-09
      4.74622705715425E-34  -2.99476634104841E-09   4.62360466147063E-18   0.00000000000000E+00   0.00000000000000E+00
      0.00000000000000E+00   0.00000000000000E+00   0.00000000000000E+00   0.00000000000000E+00   0.00000000000000E+00
      1.60271298826200E-18   0.00000000000000E+00   0.00000000000000E+00   0.00000000000000E+00   0.00000000000000E+00
     -5.61939482941867E-20  -6.91132884542860E-34  -5.61939482941874E-20  -1.07973608326732E-17   2.01723935269581E-02
      2.01723928901434E-02   0.00000000000000E+00   0.00000000000000E+00   2.99476634110460E-09   2.16510178827433E-34
      2.99476634110460E-09   4.57104318294057E-18
      2.66461013314300E-02
      0.00000000000000E+00   6.62785607902125E-10   0.00000000000000E+00   0.00000000000000E+00  -3.12494406447335E-09
      4.63458390548131E-34  -3.12494406447335E-09   4.62219567839546E-18   0.00000000000000E+00   0.00000000000000E+00
      0.00000000000000E+00   0.00000000000000E+00   0.00000000000000E+00   0.00000000000000E+00   0.00000000000000E+00
      1.56783135828738E-18   0.00000000000000E+00   0.00000000000000E+00   0.00000000000000E+00   0.00000000000000E+00
     -3.12605763511467E-19  -6.60285052307177E-34  -3.12605763511467E-19  -1.07957011691573E-17   2.29156471450298E-02
      2.29156464805743E-02   0.00000000000000E+00   0.00000000000000E+00   3.12494406478596E-09   1.96826661759045E-34
      3.12494406478596E-09   4.60567413247443E-18
      3.01336485668079E-02
      0.00000000000000E+00   6.86128429218365E-10   0.00000000000000E+00   0.00000000000000E+00  -3.23531108447975E-09
      4.87538203806742E-34  -3.23531108447975E-09   4.62065605886543E-18   0.00000000000000E+00   0.00000000000000E+00
      0.00000000000000E+00   0.00000000000000E+00   0.00000000000000E+00   0.00000000000000E+00   0.00000000000000E+00
      1.52971457073820E-18   0.00000000000000E+00   0.00000000000000E+00   0.00000000000000E+00   0.00000000000000E+00
     -2.88821003045264E-19  -6.58202757376841E-34  -2.88821003045264E-19  -1.07939451494268E-17   2.59149377674548E-02
      2.59149370796020E-02   0.00000000000000E+00   0.00000000000000E+00   3.23531108476857E-09   1.70664553570099E-34
      3.23531108476857E-09   4.64357451982318E-18
      3.39467002108211E-02
      0.00000000000000E+00   7.05691344964811E-10   0.00000000000000E+00   0.00000000000000E+00  -3.32802737441316E-09
      4.75346161175902E-34  -3.32802737441316E-09   4.61897371903392E-18   0.00000000000000E+00   0.00000000000000E+00
      0.00000000000000E+00   0.00000000000000E+00   0.00000000000000E+00   0.00000000000000E+00   0.00000000000000E+00
      1.48806355140263E-18   0.00000000000000E+00   0.00000000000000E+00   0.00000000000000E+00   0.00000000000000E+00
     -1.39205742050488E-19  -6.28595468206564E-34  -1.39205742050489E-19  -1.07920928520697E-17   2.91941621813061E-02
      2.91941614738485E-02   0.00000000000000E+00   0.00000000000000E+00   3.32802737455237E-09   1.53249307030662E-34
      3.32802737455237E-09   4.68505558163317E-18
      3.81156366749421E-02
      0.00000000000000E+00   7.22164629755829E-10   0.00000000000000E+00   0.00000000000000E+00  -3.40637915977942E-09
      4.64894871062691E-34  -3.40637915977942E-09   4.61713545369774E-18   0.00000000000000E+00   0.00000000000000E+00
      0.00000000000000E+00   0.00000000000000E+00   0.00000000000000E+00   0.00000000000000E+00   0.00000000000000E+00
      1.44255157467316E-18   0.00000000000000E+00   0.00000000000000E+00   0.00000000000000E+00   0.00000000000000E+00
     -2.68919694833713E-19  -5.99407137292595E-34  -2.68919694833714E-19  -1.07901455049894E-17   3.27794475404502E-02
      3.27794468164898E-02   0.00000000000000E+00   0.00000000000000E+00   3.40637916004834E-09   1.34512266229904E-34
      3.40637916004834E-09   4.73045847661845E-18
      4.26736738757145E-02
      0.00000000000000E+00   7.36449272164201E-10   0.00000000000000E+00   0.00000000000000E+00  -3.47464437274534E-09
      4.52735459944508E-34  -3.47464437274534E-09   4.61512683089306E-18   0.00000000000000E+00   0.00000000000000E+00
      0.00000000000000E+00   0.00000000000000E+00   0.00000000000000E+00   0.00000000000000E+00   0.00000000000000E+00
      1.39282166753618E-18   0.00000000000000E+00   0.00000000000000E+00   0.00000000000000E+00   0.00000000000000E+00
      1.38110698582464E-18  -5.74547789366551E-34   1.38110698582464E-18  -1.07881056693069E-17   3.66993595331145E-02
      3.66993587948522E-02   0.00000000000000E+00   0.00000000000000E+00   3.47464437136423E-09   1.21812329422043E-34
      3.47464437136423E-09   4.78015717087762E-18
      4.76571278818923E-02
      0.00000000000000E+00   7.49585743041324E-10   0.00000000000000E+00   0.00000000000000E+00  -3.53775723981869E-09
      4.62627552679067E-34  -3.53775723981869E-09   4.61293207802841E-18   0.00000000000000E+00   0.00000000000000E+00
      0.00000000000000E+00   0.00000000000000E+00   0.00000000000000E+00   0.00000000000000E+00   0.00000000000000E+00
      1.33848376874665E-18   0.00000000000000E+00   0.00000000000000E+00   0.00000000000000E+00   0.00000000000000E+00
      7.11744061318734E-19  -5.65294286445354E-34   7.11744061318733E-19  -1.07859774398057E-17   4.09851299784274E-02
      4.09851292270240E-02   0.00000000000000E+00   0.00000000000000E+00   3.53775723910695E-09   1.02666733766287E-34
      3.53775723910695E-09   4.83456159303067E-18
      5.31057042619801E-02
      0.00000000000000E+00   7.62611452485064E-10   0.00000000000000E+00   0.00000000000000E+00  -3.60063027258080E-09
      4.47558755571982E-34  -3.60063027258080E-09   4.61053395982625E-18   0.00000000000000E+00   0.00000000000000E+00
      0.00000000000000E+00   0.00000000000000E+00   0.00000000000000E+00   0.00000000000000E+00   0.00000000000000E+00
      1.27911162239343E-18   0.00000000000000E+00   0.00000000000000E+00   0.00000000000000E+00   0.00000000000000E+00
     -2.02722996978797E-18  -5.33863791937642E-34  -2.02722996978797E-18  -1.07837666627272E-17   4.56709056653029E-02
      4.56709049008816E-02   0.00000000000000E+00   0.00000000000000E+00   3.60063027460803E-09   8.63050363656601E-35
      3.60063027460803E-09   4.89412108050753E-18
      5.90628144375427E-02
      0.00000000000000E+00   7.76384503108744E-10   0.00000000000000E+00   0.00000000000000E+00  -3.66730178632109E-09
      4.90124872596998E-34  -3.66730178632109E-09   4.60791364567007E-18   0.00000000000000E+00   0.00000000000000E+00
      0.00000000000000E+00   0.00000000000000E+00   0.00000000000000E+00   0.00000000000000E+00   0.00000000000000E+00
      1.21423939554582E-18   0.00000000000000E+00   0.00000000000000E+00   0.00000000000000E+00   0.00000000000000E+00
     -2.55543974664818E-19  -5.62101645080242E-34  -2.55543974664819E-19  -1.07814811853308E-17   5.07940204162867E-02
      5.07940196381137E-02   0.00000000000000E+00   0.00000000000000E+00   3.66730178657663E-09   7.19767724832434E-35
      3.66730178657663E-09   4.95932814411496E-18
      6.55362074949873E-02
      0.00000000000000E+00   7.91431631119626E-10   0.00000000000000E+00   0.00000000000000E+00  -3.74022705106291E-09
      4.67816001835423E-34  -3.74022705106291E-09   4.60506801367420E-18   0.00000000000000E+00   0.00000000000000E+00
      0.00000000000000E+00   0.00000000000000E+00   0.00000000000000E+00   0.00000000000000E+00   0.00000000000000E+00
      1.14379002119611E-18   0.00000000000000E+00   0.00000000000000E+00   0.00000000000000E+00   0.00000000000000E+00
     -7.64031184919132E-20  -5.26266420603254E-34  -7.64031184919138E-20  -1.07791449628411E-17   5.63611384456891E-02
      5.63611376525019E-02   0.00000000000000E+00   0.00000000000000E+00   3.74022705113931E-09   5.84504187678302E-35
      3.74022705113931E-09   5.03028692797085E-18
      7.25706279507439E-02
      0.00000000000000E+00   8.08182163081944E-10   0.00000000000000E+00   0.00000000000000E+00  -3.82144730569399E-09
      4.49234650078976E-34  -3.82144730569399E-09   4.60197769348671E-18   0.00000000000000E+00   0.00000000000000E+00
      0.00000000000000E+00   0.00000000000000E+00   0.00000000000000E+00   0.00000000000000E+00   0.00000000000000E+00
      1.06728398116980E-18   0.00000000000000E+00   0.00000000000000E+00   0.00000000000000E+00   0.00000000000000E+00
     -2.17847323685640E-19  -4.96298747004784E-34  -2.17847323685640E-19  -1.07767701775846E-17   6.24107400376398E-02
      6.24107392277502E-02   0.00000000000000E+00   0.00000000000000E+00   3.82144730591184E-09   4.70640969258075E-35
      3.82144730591184E-09   5.10750850292810E-18
      8.02146981793327E-02
      0.00000000000000E+00   8.26890390515509E-10   0.00000000000000E+00   0.00000000000000E+00  -3.91220309915858E-09
      4.61606902991710E-34  -3.91220309915858E-09   4.59862166586632E-18   0.00000000000000E+00   0.00000000000000E+00
      0.00000000000000E+00   0.00000000000000E+00   0.00000000000000E+00   0.00000000000000E+00   0.00000000000000E+00
      9.84200482620787E-19   0.00000000000000E+00   0.00000000000000E+00   0.00000000000000E+00   0.00000000000000E+00
     -1.82069833664930E-19  -4.99469042419898E-34  -1.82069833664931E-19  -1.07743715279388E-17   6.89846404342261E-02
      6.89846396056938E-02   0.00000000000000E+00   0.00000000000000E+00   3.91220309934065E-09   3.78621394281879E-35
      3.91220309934065E-09   5.19154937945172E-18
      8.85212544943992E-02
      0.00000000000000E+00   8.47633107239541E-10   0.00000000000000E+00   0.00000000000000E+00  -4.01287399004497E-09
      4.53620507951723E-34  -4.01287399004497E-09   4.59497713168857E-18   0.00000000000000E+00   0.00000000000000E+00
      0.00000000000000E+00   0.00000000000000E+00   0.00000000000000E+00   0.00000000000000E+00   0.00000000000000E+00
      8.93973966915608E-19   0.00000000000000E+00   0.00000000000000E+00   0.00000000000000E+00   0.00000000000000E+00
     -1.87087637288444E-19  -4.82496385092069E-34  -1.87087637288444E-19  -1.07719665581015E-17   7.61282788651833E-02
      7.61282780159822E-02   0.00000000000000E+00   0.00000000000000E+00   4.01287399023206E-09   2.88758771403457E-35
      4.01287399023206E-09   5.28301545949730E-18
      9.75477123567714E-02
      0.00000000000000E+00   8.70485274604765E-10   0.00000000000000E+00   0.00000000000000E+00  -4.12384528069895E-09
      4.67960097379889E-34  -4.12384528069895E-09   4.59101934371420E-18   0.00000000000000E+00   0.00000000000000E+00
      0.00000000000000E+00   0.00000000000000E+00   0.00000000000000E+00   0.00000000000000E+00   0.00000000000000E+00
      7.95990164088606E-19   0.00000000000000E+00   0.00000000000000E+00   0.00000000000000E+00   0.00000000000000E+00
     -4.48029038889849E-20  -4.90569376219515E-34  -4.48029038889854E-20  -1.07695757911275E-17   8.38910326268234E-02
      8.38910317548477E-02   0.00000000000000E+00   0.00000000000000E+00   4.12384528074375E-09   2.26092788396263E-35
      4.12384528074375E-09   5.38256628332472E-18
      1.07356463233883E-01
      0.00000000000000E+00   8.95674681391495E-10   0.00000000000000E+00   0.00000000000000E+00  -4.24626425666884E-09
      4.74836836312564E-34  -4.24626425666884E-09   4.58672142010773E-18   0.00000000000000E+00   0.00000000000000E+00
      0.00000000000000E+00   0.00000000000000E+00   0.00000000000000E+00   0.00000000000000E+00   0.00000000000000E+00
      6.89581730695788E-19   0.00000000000000E+00   0.00000000000000E+00   0.00000000000000E+00   0.00000000000000E+00
     -1.78438422085548E-19  -4.91521251238787E-34  -1.78438422085549E-19  -1.07672227747926E-17   9.23265583811390E-02
      9.23265574840655E-02   0.00000000000000E+00   0.00000000000000E+00   4.24626425684728E-09   1.66844149262234E-35
      4.24626425684728E-09   5.49091962398913E-18
      1.17356463233883E-01
      0.00000000000000E+00   9.21828084453858E-10   0.00000000000000E+00   0.00000000000000E+00  -4.37348292230976E-09
      4.67836208995214E-34  -4.37348292230976E-09   4.58234257012326E-18   0.00000000000000E+00   0.00000000000000E+00
      0.00000000000000E+00   0.00000000000000E+00   0.00000000000000E+00   0.00000000000000E+00   0.00000000000000E+00
      5.81164473410485E-19   0.00000000000000E+00   0.00000000000000E+00   0.00000000000000E+00   0.00000000000000E+00
     -4.73741517022266E-20  -4.80312893236553E-34  -4.73741517022271E-20  -1.07650680464470E-17   1.00926558381139E-01
      1.00926557458025E-01   0.00000000000000E+00   0.00000000000000E+00   4.37348292235713E-09   1.24766842413400E-35
      4.37348292235713E-09   5.60156100291329E-18
      1.27356463233883E-01
      0.00000000000000E+00   9.48551179396420E-10   0.00000000000000E+00   0.00000000000000E+00  -4.50358314784068E-09
      4.66590742577432E-34  -4.50358314784068E-09   4.57796645118433E-18   0.00000000000000E+00   0.00000000000000E+00
      0.00000000000000E+00   0.00000000000000E+00   0.00000000000000E+00   0.00000000000000E+00   0.00000000000000E+00
      4.72808225930488E-19   0.00000000000000E+00   0.00000000000000E+00   0.00000000000000E+00   0.00000000000000E+00
      2.62625078069281E-20  -4.75368584583902E-34   2.62625078069276E-20  -1.07631426076115E-17   1.09526558381139E-01
      1.09526557431432E-01   0.00000000000000E+00   0.00000000000000E+00   4.50358314781442E-09   8.77784200647063E-36
      4.50358314781442E-09   5.71236793049670E-18
      1.37356463233883E-01
      0.00000000000000E+00   9.75907191361682E-10   0.00000000000000E+00   0.00000000000000E+00  -4.63686923038351E-09
      4.63307638497296E-34  -4.63686923038351E-09   4.57359292179766E-18   0.00000000000000E+00   0.00000000000000E+00
      0.00000000000000E+00   0.00000000000000E+00   0.00000000000000E+00   0.00000000000000E+00   0.00000000000000E+00
      3.64508218066562E-19   0.00000000000000E+00   0.00000000000000E+00   0.00000000000000E+00   0.00000000000000E+00
      1.38066228259642E-19  -4.69971369582975E-34   1.38066228259641E-19  -1.07614308545063E-17   1.18126558381139E-01
      1.18126557404209E-01   0.00000000000000E+00   0.00000000000000E+00   4.63686923024544E-09   6.66373108568002E-36
      4.63686923024544E-09   5.82332971464214E-18
      1.47356463233883E-01
      0.00000000000000E+00   1.00392617570997E-09   0.00000000000000E+00   0.00000000000000E+00  -4.77348466690426E-09
      4.64673269274686E-34  -4.77348466690426E-09   4.56922185554650E-18   0.00000000000000E+00   0.00000000000000E+00
      0.00000000000000E+00   0.00000000000000E+00   0.00000000000000E+00   0.00000000000000E+00   0.00000000000000E+00
      2.56260301242214E-19   0.00000000000000E+00   0.00000000000000E+00   0.00000000000000E+00   0.00000000000000E+00
      6.32961871775569E-21  -4.69815974642754E-34   6.32961871775522E-21  -1.07599186289978E-17   1.26726558381139E-01
      1.26726557376321E-01   0.00000000000000E+00   0.00000000000000E+00   4.77348466689793E-09   5.14270536806813E-36
      4.77348466689793E-09   5.93443647220908E-18
      1.57356463233883E-01
      0.00000000000000E+00   1.03261330119752E-09   0.00000000000000E+00   0.00000000000000E+00  -4.91345412747323E-09
      4.60851227144784E-34  -4.91345412747323E-09   4.56485313684295E-18   0.00000000000000E+00   0.00000000000000E+00
      0.00000000000000E+00   0.00000000000000E+00   0.00000000000000E+00   0.00000000000000E+00   0.00000000000000E+00
      1.48060807217467E-19   0.00000000000000E+00   0.00000000000000E+00   0.00000000000000E+00   0.00000000000000E+00
     -1.20146928426476E-20  -4.64565975926898E-34  -1.20146928426480E-20  -1.07585929874589E-17   1.35326558381139E-01
      1.35326557347763E-01   0.00000000000000E+00   0.00000000000000E+00   4.91345412748525E-09   3.71474878211481E-36
      4.91345412748525E-09   6.04567904339855E-18
      1.67356463233883E-01
      0.00000000000000E+00   1.06196256361296E-09   0.00000000000000E+00   0.00000000000000E+00  -5.05674816688427E-09
      4.71112677666391E-34  -5.05674816688427E-09   4.56048665927575E-18   0.00000000000000E+00   0.00000000000000E+00
      0.00000000000000E+00   0.00000000000000E+00   0.00000000000000E+00   0.00000000000000E+00   0.00000000000000E+00
      3.99064583324540E-20   0.00000000000000E+00   0.00000000000000E+00   0.00000000000000E+00   0.00000000000000E+00
      2.09889405990860E-20  -4.73855995393174E-34   2.09889405990856E-20  -1.07574420399870E-17   1.43926558381139E-01
      1.43926557318541E-01   0.00000000000000E+00   0.00000000000000E+00   5.05674816686328E-09   2.74331772678261E-36
      5.05674816686328E-09   6.15704892237879E-18
      1.77356463233883E-01
      0.00000000000000E+00   1.09196740656993E-09   0.00000000000000E+00   0.00000000000000E+00  -5.20333714730194E-09
      4.46586090315322E-34  -5.20333714730194E-09   4.55612232667202E-18   0.00000000000000E+00   0.00000000000000E+00
      0.00000000000000E+00   0.00000000000000E+00   0.00000000000000E+00   0.00000000000000E+00   0.00000000000000E+00
     -6.82056492853182E-20   0.00000000000000E+00   0.00000000000000E+00   0.00000000000000E+00   0.00000000000000E+00
     -1.48864952386559E-19  -4.48542031461012E-34  -1.48864952386559E-19  -1.07564548832994E-17   1.52526558381139E-01
      1.52526557288668E-01   0.00000000000000E+00   0.00000000000000E+00   5.20333714745081E-09   1.95594114569042E-36
      5.20333714745081E-09   6.26853820591266E-18
      1.87356463233883E-01
      0.00000000000000E+00   1.12262634008121E-09   0.00000000000000E+00   0.00000000000000E+00  -5.35321803789255E-09