DF-ISE text

Info {
  version   = 1.0
  type      = xyplot
  datasets  = [
    "time"
    "source OuterVoltage" "source InnerVoltage" "source QuasiFermiPotential" "source DisplacementCurrent" "source eCurrent"
    "source hCurrent" "source TotalCurrent" "source Charge" "gate OuterVoltage" "gate InnerVoltage"
    "gate QuasiFermiPotential" "gate DisplacementCurrent" "gate eCurrent" "gate hCurrent" "gate TotalCurrent"
    "gate Charge" "substrate OuterVoltage" "substrate InnerVoltage" "substrate QuasiFermiPotential" "substrate DisplacementCurrent"
    "substrate eCurrent" "substrate hCurrent" "substrate TotalCurrent" "substrate Charge" "drain OuterVoltage"
    "drain InnerVoltage" "drain QuasiFermiPotential" "drain DisplacementCurrent" "drain eCurrent" "drain hCurrent"
    "drain TotalCurrent" "drain Charge" ]
  functions = [
    Time
    OuterVoltage InnerVoltage QuasiFermiPotential DisplacementCurrent eCurrent
    hCurrent TotalCurrent Charge OuterVoltage InnerVoltage
    QuasiFermiPotential DisplacementCurrent eCurrent hCurrent TotalCurrent
    Charge OuterVoltage InnerVoltage QuasiFermiPotential DisplacementCurrent
    eCurrent hCurrent TotalCurrent Charge OuterVoltage
    InnerVoltage QuasiFermiPotential DisplacementCurrent eCurrent hCurrent
    TotalCurrent Charge ]
}

Data {
      0.00000000000000E+00
      0.00000000000000E+00   0.00000000000000E+00   0.00000000000000E+00   0.00000000000000E+00   1.67127573499108E-21
     -1.51064585634961E-34   1.67127573499093E-21   4.91503500904779E-18   0.00000000000000E+00   0.00000000000000E+00
      0.00000000000000E+00   0.00000000000000E+00   0.00000000000000E+00   0.00000000000000E+00   0.00000000000000E+00
      2.89349677093219E-18   0.00000000000000E+00   0.00000000000000E+00   0.00000000000000E+00   0.00000000000000E+00
      1.76859184374905E-22   3.74287756116647E-34   1.76859184375280E-22  -1.17779086419493E-17   0.00000000000000E+00
      0.00000000000000E+00   0.00000000000000E+00   0.00000000000000E+00  -1.84813491936598E-21  -2.23223170481687E-34
     -1.84813491936621E-21   3.96937686196929E-18
      0.00000000000000E+00
      0.00000000000000E+00   0.00000000000000E+00   0.00000000000000E+00   0.00000000000000E+00   9.70094672793090E-21
     -1.80400330775671E-34   9.70094672793072E-21   4.91322021417680E-18   0.00000000000000E+00   0.00000000000000E+00
      0.00000000000000E+00   0.00000000000000E+00   0.00000000000000E+00   0.00000000000000E+00   0.00000000000000E+00
      2.88734311993777E-18   0.00000000000000E+00   0.00000000000000E+00   0.00000000000000E+00   0.00000000000000E+00
      4.60152436034452E-21   3.75860469210244E-34   4.60152436034490E-21  -1.17686679363399E-17   0.00000000000000E+00
      0.00000000000000E+00   0.00000000000000E+00   0.00000000000000E+00  -1.43024710882754E-20  -1.95460138434573E-34
     -1.43024710882756E-20   3.96810460222534E-18
      1.00000000000000E-03
      0.00000000000000E+00   3.13562400948847E-12   0.00000000000000E+00   0.00000000000000E+00  -1.52954790717234E-11
     -1.53895250718541E-34  -1.52954790717234E-11   4.91320324715845E-18   0.00000000000000E+00   0.00000000000000E+00
      0.00000000000000E+00   0.00000000000000E+00   0.00000000000000E+00   0.00000000000000E+00   0.00000000000000E+00
      2.88671319076542E-18   0.00000000000000E+00   0.00000000000000E+00   0.00000000000000E+00   0.00000000000000E+00
     -1.56250310148614E-19   3.63524574584420E-34  -1.56250310148613E-19  -1.17686391457671E-17   5.00000000000000E-05
      4.99999968347769E-05   0.00000000000000E+00   0.00000000000000E+00   1.52954792279737E-11  -2.09629323865879E-34
      1.52954792279737E-11   3.96872270784314E-18
      2.09333333333333E-03
      0.00000000000000E+00   6.55338181279742E-12   0.00000000000000E+00   0.00000000000000E+00  -3.19672045678471E-11
     -1.73245584022615E-34  -3.19672045678471E-11   4.91318469689095E-18   0.00000000000000E+00   0.00000000000000E+00
      0.00000000000000E+00   0.00000000000000E+00   0.00000000000000E+00   0.00000000000000E+00   0.00000000000000E+00
      2.88602448195141E-18   0.00000000000000E+00   0.00000000000000E+00   0.00000000000000E+00   0.00000000000000E+00
     -1.13269352906036E-20   3.66641097034264E-34  -1.13269352906032E-20  -1.17686076978750E-17   1.04666666666667E-04
      1.04666660051429E-04   0.00000000000000E+00   0.00000000000000E+00   3.19672045791740E-11  -1.93395513011649E-34
      3.19672045791740E-11   3.96939851903265E-18
      3.29600000000000E-03
      0.00000000000000E+00   1.02997551212545E-11   0.00000000000000E+00   0.00000000000000E+00  -5.02418478389859E-11
     -1.87981984748563E-34  -5.02418478389859E-11   4.91316429200804E-18   0.00000000000000E+00   0.00000000000000E+00
      0.00000000000000E+00   0.00000000000000E+00   0.00000000000000E+00   0.00000000000000E+00   0.00000000000000E+00
      2.88526691882776E-18   0.00000000000000E+00   0.00000000000000E+00   0.00000000000000E+00   0.00000000000000E+00
      1.28346108197897E-20   4.15936899372369E-34   1.28346108197901E-20  -1.17685731411192E-17   1.64800000000000E-04
      1.64799989603039E-04   0.00000000000000E+00   0.00000000000000E+00   5.02418478261513E-11  -2.27954914623806E-34
      5.02418478261513E-11   3.97014193028337E-18
      4.61893333333333E-03
      0.00000000000000E+00   1.44045231428967E-11   0.00000000000000E+00   0.00000000000000E+00  -7.02646184695687E-11
     -1.70532063724752E-34  -7.02646184695687E-11   4.91314184713591E-18   0.00000000000000E+00   0.00000000000000E+00
      0.00000000000000E+00   0.00000000000000E+00   0.00000000000000E+00   0.00000000000000E+00   0.00000000000000E+00
      2.88443361942304E-18   0.00000000000000E+00   0.00000000000000E+00   0.00000000000000E+00   0.00000000000000E+00
      2.21223222278283E-20   3.96769993999909E-34   2.21223222278287E-20  -1.17685351721186E-17   2.30946666666667E-04
      2.30946652126211E-04   0.00000000000000E+00   0.00000000000000E+00   7.02646184474464E-11  -2.26237930275157E-34
      7.02646184474464E-11   3.97095970555967E-18
      6.07416000000000E-03
      0.00000000000000E+00   1.88998273985962E-11   0.00000000000000E+00   0.00000000000000E+00  -9.21923234726901E-11
     -1.83969767858886E-34  -9.21923234726901E-11   4.91311715838141E-18   0.00000000000000E+00   0.00000000000000E+00
      0.00000000000000E+00   0.00000000000000E+00   0.00000000000000E+00   0.00000000000000E+00   0.00000000000000E+00
      2.88351701428792E-18   0.00000000000000E+00   0.00000000000000E+00   0.00000000000000E+00   0.00000000000000E+00
      4.18815860881177E-21   4.09477842223599E-34   4.18815860881218E-21  -1.17684934587177E-17   3.03708000000000E-04
      3.03707980921834E-04   0.00000000000000E+00   0.00000000000000E+00   9.21923234685019E-11  -2.25508074364714E-34
      9.21923234685019E-11   3.97185928604834E-18
      7.67490933333333E-03
      0.00000000000000E+00   2.38203041108712E-11   0.00000000000000E+00   0.00000000000000E+00  -1.16193798862317E-10
     -1.75686022367717E-34  -1.16193798862317E-10   4.91309000148399E-18   0.00000000000000E+00   0.00000000000000E+00
      0.00000000000000E+00   0.00000000000000E+00   0.00000000000000E+00   0.00000000000000E+00   0.00000000000000E+00
      2.88250877789639E-18   0.00000000000000E+00   0.00000000000000E+00   0.00000000000000E+00   0.00000000000000E+00
      2.45010472981299E-20   3.81608599303766E-34   2.45010472981302E-20  -1.17684476374328E-17   3.83745466666667E-04
      3.83745442621631E-04   0.00000000000000E+00   0.00000000000000E+00   1.16193798837816E-10  -2.05922576936048E-34
      1.16193798837816E-10   3.97284885805238E-18
      9.43573360000000E-03
      0.00000000000000E+00   2.92031007524868E-11   0.00000000000000E+00   0.00000000000000E+00  -1.42450310694657E-10
     -1.63548981239913E-34  -1.42450310694657E-10   4.91306012978379E-18   0.00000000000000E+00   0.00000000000000E+00
      0.00000000000000E+00   0.00000000000000E+00   0.00000000000000E+00   0.00000000000000E+00   0.00000000000000E+00
      2.88139975321721E-18   0.00000000000000E+00   0.00000000000000E+00   0.00000000000000E+00   0.00000000000000E+00
      2.40678646383253E-20   3.58490255406579E-34   2.40678646383256E-20  -1.17683973107103E-17   4.71786680000000E-04
      4.71786650521418E-04   0.00000000000000E+00   0.00000000000000E+00   1.42450310670589E-10  -1.94941274166666E-34
      1.42450310670589E-10   3.97393742770932E-18
      1.13726402933333E-02
      0.00000000000000E+00   3.50880274661572E-11   0.00000000000000E+00   0.00000000000000E+00  -1.71155864876551E-10
     -2.21562411086805E-34  -1.71155864876551E-10   4.91302727198687E-18   0.00000000000000E+00   0.00000000000000E+00
      0.00000000000000E+00   0.00000000000000E+00   0.00000000000000E+00   0.00000000000000E+00   0.00000000000000E+00
      2.88017986877948E-18   0.00000000000000E+00   0.00000000000000E+00   0.00000000000000E+00   0.00000000000000E+00
      1.12372841645118E-19   4.52663406252638E-34   1.12372841645119E-19  -1.17683420439910E-17   5.68632014666667E-04
      5.68631979247683E-04   0.00000000000000E+00   0.00000000000000E+00   1.71155864764178E-10  -2.31100995165833E-34
      1.71155864764178E-10   3.97513490322463E-18
      1.35032376560000E-02
      0.00000000000000E+00   4.15175256222028E-11   0.00000000000000E+00   0.00000000000000E+00  -2.02517378384473E-10
     -1.79093054088032E-34  -2.02517378384473E-10   4.91299112970879E-18   0.00000000000000E+00   0.00000000000000E+00
      0.00000000000000E+00   0.00000000000000E+00   0.00000000000000E+00   0.00000000000000E+00   0.00000000000000E+00
      2.87883804748848E-18   0.00000000000000E+00   0.00000000000000E+00   0.00000000000000E+00   0.00000000000000E+00
      9.54902080075994E-20   3.72269529305954E-34   9.54902080075998E-20  -1.17682813625766E-17   6.75161882800000E-04
      6.75161840890944E-04   0.00000000000000E+00   0.00000000000000E+00   2.02517378288983E-10  -1.93176475217923E-34
      2.02517378288983E-10   3.97645218537931E-18
      1.58468947549333E-02
      0.00000000000000E+00   4.85366595442502E-11   0.00000000000000E+00   0.00000000000000E+00  -2.36754665271520E-10
     -1.68202605430077E-34  -2.36754665271520E-10   4.91295137477347E-18   0.00000000000000E+00   0.00000000000000E+00
      0.00000000000000E+00   0.00000000000000E+00   0.00000000000000E+00   0.00000000000000E+00   0.00000000000000E+00
      2.87736210637642E-18   0.00000000000000E+00   0.00000000000000E+00   0.00000000000000E+00   0.00000000000000E+00
      2.25608946557714E-19   3.86138010418181E-34   2.25608946557714E-19  -1.17682147483006E-17   7.92344737746667E-04
      7.92344688752360E-04   0.00000000000000E+00   0.00000000000000E+00   2.36754665045911E-10  -2.17935404988104E-34
      2.36754665045911E-10   3.97790126715067E-18
      1.84249175637600E-02
      0.00000000000000E+00   5.61931314029727E-11   0.00000000000000E+00   0.00000000000000E+00  -2.74100179280292E-10
     -1.84518735851800E-34  -2.74100179280292E-10   4.91290764624351E-18   0.00000000000000E+00   0.00000000000000E+00
      0.00000000000000E+00   0.00000000000000E+00   0.00000000000000E+00   0.00000000000000E+00   0.00000000000000E+00
      2.87573864639094E-18   0.00000000000000E+00   0.00000000000000E+00   0.00000000000000E+00   0.00000000000000E+00
      3.01447272330613E-19   4.03326000946622E-34   3.01447272330613E-19  -1.17681416360033E-17   9.21245878188001E-04
      9.21245821465135E-04   0.00000000000000E+00   0.00000000000000E+00   2.74100178978845E-10  -2.18807265094822E-34
      2.74100178978845E-10   3.97949534336884E-18
      2.12607426534693E-02
      0.00000000000000E+00   6.45370909071759E-11   0.00000000000000E+00   0.00000000000000E+00  -3.14798450382846E-10
     -2.03014751465701E-34  -3.14798450382846E-10   4.91285954715587E-18   0.00000000000000E+00   0.00000000000000E+00
      0.00000000000000E+00   0.00000000000000E+00   0.00000000000000E+00   0.00000000000000E+00   0.00000000000000E+00
      2.87395293123899E-18   0.00000000000000E+00   0.00000000000000E+00   0.00000000000000E+00   0.00000000000000E+00
      4.69439823751930E-19   4.34329148673633E-34   4.69439823751931E-19  -1.17680614098240E-17   1.06303713267347E-03
      1.06303706752810E-03   0.00000000000000E+00   0.00000000000000E+00   3.14798449913406E-10  -2.31314397207932E-34
      3.14798449913406E-10   3.98124893142908E-18
      2.43801502521496E-02
      0.00000000000000E+00   7.36209979504066E-11   0.00000000000000E+00   0.00000000000000E+00  -3.59105139837865E-10
     -1.75095020854694E-34  -3.59105139837865E-10   4.91280664093281E-18   0.00000000000000E+00   0.00000000000000E+00
      0.00000000000000E+00   0.00000000000000E+00   0.00000000000000E+00   0.00000000000000E+00   0.00000000000000E+00
      2.87198875420577E-18   0.00000000000000E+00   0.00000000000000E+00   0.00000000000000E+00   0.00000000000000E+00
      2.75315230763960E-18   3.72120131773808E-34   2.75315230763960E-18  -1.17679733993209E-17   1.21900751260748E-03
      1.21900743829272E-03   0.00000000000000E+00   0.00000000000000E+00   3.59105137084713E-10  -1.97025110919114E-34
      3.59105137084713E-10   3.98317800418232E-18
      2.78114986106979E-02
      0.00000000000000E+00   8.34993114972485E-11   0.00000000000000E+00   0.00000000000000E+00  -4.07285610776520E-10
     -1.50192626242186E-34  -4.07285610776520E-10   4.91274844743773E-18   0.00000000000000E+00   0.00000000000000E+00
      0.00000000000000E+00   0.00000000000000E+00   0.00000000000000E+00   0.00000000000000E+00   0.00000000000000E+00
      2.86982829176524E-18   0.00000000000000E+00   0.00000000000000E+00   0.00000000000000E+00   0.00000000000000E+00
      1.06859234026677E-18   3.76541646519934E-34   1.06859234026677E-18  -1.17678768754468E-17   1.39057493053490E-03
      1.39057484624891E-03   0.00000000000000E+00   0.00000000000000E+00   4.07285609707927E-10  -2.26349020277748E-34
      4.07285609707927E-10   3.98530013624386E-18
      3.15859818051010E-02
      0.00000000000000E+00   9.42280775231497E-11   0.00000000000000E+00   0.00000000000000E+00  -4.59612950908179E-10
     -2.05064513209347E-34  -4.59612950908179E-10   4.91268443863870E-18   0.00000000000000E+00   0.00000000000000E+00
      0.00000000000000E+00   0.00000000000000E+00   0.00000000000000E+00   0.00000000000000E+00   0.00000000000000E+00
      2.86745194268397E-18   0.00000000000000E+00   0.00000000000000E+00   0.00000000000000E+00   0.00000000000000E+00
      1.58242894934114E-18   4.07796772533931E-34   1.58242894934114E-18  -1.17677710464118E-17   1.57929909025505E-03
      1.57929899513942E-03   0.00000000000000E+00   0.00000000000000E+00   4.59612949325750E-10  -2.02732259324584E-34
      4.59612949325750E-10   3.98763466508914E-18
      3.57379133189445E-02
      0.00000000000000E+00   1.05864401114042E-10   0.00000000000000E+00   0.00000000000000E+00  -5.16365332334796E-10
     -2.04515111601951E-34  -5.16365332334796E-10   4.91261403384281E-18   0.00000000000000E+00   0.00000000000000E+00
      0.00000000000000E+00   0.00000000000000E+00   0.00000000000000E+00   0.00000000000000E+00   0.00000000000000E+00
      2.86483815117211E-18   0.00000000000000E+00   0.00000000000000E+00   0.00000000000000E+00   0.00000000000000E+00
      7.29496668814188E-18   4.18123517066790E-34   7.29496668814188E-18  -1.17676550534515E-17   1.78689566594722E-03
      1.78689555908592E-03   0.00000000000000E+00   0.00000000000000E+00   5.16365325039829E-10  -2.13608405464839E-34
      5.16365325039829E-10   3.99020286843656E-18
      4.03050379841723E-02
      0.00000000000000E+00   1.18465714190731E-10   0.00000000000000E+00   0.00000000000000E+00  -5.77822460993574E-10
     -1.75794904678924E-34  -5.77822460993574E-10   4.91253659445907E-18   0.00000000000000E+00   0.00000000000000E+00
      0.00000000000000E+00   0.00000000000000E+00   0.00000000000000E+00   0.00000000000000E+00   0.00000000000000E+00
      2.86196321256916E-18   0.00000000000000E+00   0.00000000000000E+00   0.00000000000000E+00   0.00000000000000E+00
      3.45655088808117E-18   3.99872167892308E-34   3.45655088808117E-18  -1.17675279666327E-17   2.01525189920861E-03
      2.01525177962763E-03   0.00000000000000E+00   0.00000000000000E+00   5.77822457537023E-10  -2.24077263213385E-34
      5.77822457537023E-10   3.99302815960450E-18
      4.53288751159228E-02
      0.00000000000000E+00   1.32088892641022E-10   0.00000000000000E+00   0.00000000000000E+00  -6.44261282191366E-10
     -1.53557578614644E-34  -6.44261282191366E-10   4.91245141824219E-18   0.00000000000000E+00   0.00000000000000E+00
      0.00000000000000E+00   0.00000000000000E+00   0.00000000000000E+00   0.00000000000000E+00   0.00000000000000E+00
      2.85880105977422E-18   0.00000000000000E+00   0.00000000000000E+00   0.00000000000000E+00   0.00000000000000E+00
      1.97555040096870E-17   3.62120334097859E-34   1.97555040096870E-17  -1.17673887806682E-17   2.26644375579614E-03
      2.26644362246410E-03   0.00000000000000E+00   0.00000000000000E+00   6.44261262435861E-10  -2.08562755483215E-34
      6.44261262435861E-10   3.99613630265178E-18
      5.08550959608485E-02
      0.00000000000000E+00   1.46789120258234E-10   0.00000000000000E+00   0.00000000000000E+00  -7.15950312876530E-10
     -1.85060711077307E-34  -7.15950312876530E-10   4.91235773296818E-18   0.00000000000000E+00   0.00000000000000E+00
      0.00000000000000E+00   0.00000000000000E+00   0.00000000000000E+00   0.00000000000000E+00   0.00000000000000E+00
      2.85532302861596E-18   0.00000000000000E+00   0.00000000000000E+00   0.00000000000000E+00   0.00000000000000E+00
      7.31115917746669E-18   3.87044564053066E-34   7.31115917746669E-18  -1.17672364109480E-17   2.54275479804242E-03
      2.54275464987223E-03   0.00000000000000E+00   0.00000000000000E+00   7.15950305565372E-10  -2.01983852975759E-34
      7.15950305565372E-10   3.99955564936386E-18
      5.69339388902666E-02
      0.00000000000000E+00   1.62618530101039E-10   0.00000000000000E+00   0.00000000000000E+00  -7.93143108221692E-10
     -1.70381101631537E-34  -7.93143108221692E-10   4.91225468948488E-18   0.00000000000000E+00   0.00000000000000E+00
      0.00000000000000E+00   0.00000000000000E+00   0.00000000000000E+00   0.00000000000000E+00   0.00000000000000E+00
      2.85149760004772E-18   0.00000000000000E+00   0.00000000000000E+00   0.00000000000000E+00   0.00000000000000E+00
      1.06282679299347E-17   3.69333314524454E-34   1.06282679299347E-17  -1.17670696898390E-17   2.84669694451333E-03
      2.84669678036532E-03   0.00000000000000E+00   0.00000000000000E+00   7.93143097593424E-10  -1.98952212892917E-34
      7.93143097593424E-10   4.00331740030641E-18
      6.36206661126266E-02
      0.00000000000000E+00   1.79624507434395E-10   0.00000000000000E+00   0.00000000000000E+00  -8.76070000205220E-10
     -1.76812862078816E-34  -8.76070000205220E-10   4.91214135407636E-18   0.00000000000000E+00   0.00000000000000E+00
      0.00000000000000E+00   0.00000000000000E+00   0.00000000000000E+00   0.00000000000000E+00   0.00000000000000E+00
      2.84729011692939E-18   0.00000000000000E+00   0.00000000000000E+00   0.00000000000000E+00   0.00000000000000E+00
      1.54743431172612E-17   3.82133945978704E-34   1.54743431172612E-17  -1.17668873634430E-17   3.18103330563133E-03
      3.18103312431801E-03   0.00000000000000E+00   0.00000000000000E+00   8.76069984730877E-10  -2.05321083899888E-34
      8.76069984730877E-10   4.00745589243726E-18
      7.09760660572226E-02
      0.00000000000000E+00   1.97847754370626E-10   0.00000000000000E+00   0.00000000000000E+00  -9.64928589031314E-10
     -1.25731299494001E-34  -9.64928589031314E-10   4.91201670007465E-18   0.00000000000000E+00   0.00000000000000E+00
      0.00000000000000E+00   0.00000000000000E+00   0.00000000000000E+00   0.00000000000000E+00   0.00000000000000E+00
      2.84266247291376E-18   0.00000000000000E+00   0.00000000000000E+00   0.00000000000000E+00   0.00000000000000E+00
      2.24137461546688E-17   3.11490890314638E-34   2.24137461546688E-17  -1.17666880890005E-17   3.54880330286113E-03
      3.54880310315395E-03   0.00000000000000E+00   0.00000000000000E+00   9.64928566617567E-10  -1.85759590820637E-34
      9.64928566617567E-10   4.01200891601211E-18
      7.90670059962782E-02
      0.00000000000000E+00   2.17319997060713E-10   0.00000000000000E+00   0.00000000000000E+00  -1.05987256806546E-09
     -1.99703402847654E-34  -1.05987256806546E-09   4.91187959864516E-18   0.00000000000000E+00   0.00000000000000E+00
      0.00000000000000E+00   0.00000000000000E+00   0.00000000000000E+00   0.00000000000000E+00   0.00000000000000E+00
      2.83757277073417E-18   0.00000000000000E+00   0.00000000000000E+00   0.00000000000000E+00   0.00000000000000E+00
      6.78785386098262E-17   3.83896708914784E-34   6.78785386098262E-17  -1.17664704331983E-17   3.95335029981391E-03
      3.95335008045232E-03   0.00000000000000E+00   0.00000000000000E+00   1.05987250018692E-09  -1.84193306067131E-34
      1.05987250018692E-09   4.01701806381898E-18
      8.79670399292394E-02
      0.00000000000000E+00   2.38061364395844E-10   0.00000000000000E+00   0.00000000000000E+00  -1.16099875843537E-09
     -1.89695444891703E-34  -1.16099875843537E-09   4.91172880866400E-18   0.00000000000000E+00   0.00000000000000E+00
      0.00000000000000E+00   0.00000000000000E+00   0.00000000000000E+00   0.00000000000000E+00   0.00000000000000E+00
      2.83197494687988E-18   0.00000000000000E+00   0.00000000000000E+00   0.00000000000000E+00   0.00000000000000E+00
      4.68537796428386E-17   3.94757686542779E-34   4.68537796428386E-17  -1.17662328716164E-17   4.39835199646197E-03
      4.39835175616517E-03   0.00000000000000E+00   0.00000000000000E+00   1.16099871158159E-09  -2.05062241651076E-34
      1.16099871158159E-09   4.02252911607250E-18
      9.77570772554967E-02
      0.00000000000000E+00   2.60077391883154E-10   0.00000000000000E+00   0.00000000000000E+00  -1.26833309437630E-09
     -1.75974949101250E-34  -1.26833309437630E-09   4.91156296559935E-18   0.00000000000000E+00   0.00000000000000E+00
      0.00000000000000E+00   0.00000000000000E+00   0.00000000000000E+00   0.00000000000000E+00   0.00000000000000E+00
      2.82581835941766E-18   0.00000000000000E+00   0.00000000000000E+00   0.00000000000000E+00   0.00000000000000E+00
      6.77304565131494E-17   3.61259031271414E-34   6.77304565131494E-17  -1.17659737896991E-17   4.88785386277484E-03
      4.88785360025643E-03   0.00000000000000E+00   0.00000000000000E+00   1.26833302664584E-09  -1.85284082170164E-34
      1.26833302664584E-09   4.02859246468204E-18
      1.07757077255497E-01
      0.00000000000000E+00   2.81725405782775E-10   0.00000000000000E+00   0.00000000000000E+00  -1.37386635996771E-09
     -1.66098128140565E-34  -1.37386635996771E-09   4.91139359355292E-18   0.00000000000000E+00   0.00000000000000E+00
      0.00000000000000E+00   0.00000000000000E+00   0.00000000000000E+00   0.00000000000000E+00   0.00000000000000E+00
      2.81953082706760E-18   0.00000000000000E+00   0.00000000000000E+00   0.00000000000000E+00   0.00000000000000E+00
      7.79738630782300E-17   3.42276544639110E-34   7.79738630782300E-17  -1.17657115528908E-17   5.38785386277483E-03
      5.38785357840649E-03   0.00000000000000E+00   0.00000000000000E+00   1.37386628199384E-09  -1.76178416498545E-34
      1.37386628199384E-09   4.03478713227024E-18
      1.17757077255497E-01
      0.00000000000000E+00   3.02549997688697E-10   0.00000000000000E+00   0.00000000000000E+00  -1.47537891957564E-09
     -1.65001489062165E-34  -1.47537891957564E-09   4.91122424932081E-18   0.00000000000000E+00   0.00000000000000E+00
      0.00000000000000E+00   0.00000000000000E+00   0.00000000000000E+00   0.00000000000000E+00   0.00000000000000E+00
      2.81324438954497E-18   0.00000000000000E+00   0.00000000000000E+00   0.00000000000000E+00   0.00000000000000E+00
      7.83182178575099E-17   3.35773448111589E-34   7.83182178575099E-17  -1.17654517256583E-17   5.88785386277483E-03
      5.88785355738783E-03   0.00000000000000E+00   0.00000000000000E+00   1.47537884125742E-09  -1.70771959049424E-34
      1.47537884125742E-09   4.04098308679253E-18
      1.27757077255497E-01
      0.00000000000000E+00   3.22576832826676E-10   0.00000000000000E+00   0.00000000000000E+00  -1.57299654452317E-09
     -1.65160224793561E-34  -1.57299654452317E-09   4.91105493263699E-18   0.00000000000000E+00   0.00000000000000E+00
      0.00000000000000E+00   0.00000000000000E+00   0.00000000000000E+00   0.00000000000000E+00   0.00000000000000E+00
      2.80695903734659E-18   0.00000000000000E+00   0.00000000000000E+00   0.00000000000000E+00   0.00000000000000E+00
      7.70072888299116E-17   3.33347827673221E-34   7.70072888299116E-17  -1.17651942906026E-17   6.38785386277483E-03
      6.38785353717457E-03   0.00000000000000E+00   0.00000000000000E+00   1.57299646751588E-09  -1.68187602879660E-34
      1.57299646751588E-09   4.04718032061909E-18
      1.37757077255497E-01
      0.00000000000000E+00   3.41831305852833E-10   0.00000000000000E+00   0.00000000000000E+00  -1.66684354460128E-09
     -1.80623516957638E-34  -1.66684354460128E-09   4.91088564323383E-18   0.00000000000000E+00   0.00000000000000E+00
      0.00000000000000E+00   0.00000000000000E+00   0.00000000000000E+00   0.00000000000000E+00   0.00000000000000E+00
      2.80067476104787E-18   0.00000000000000E+00   0.00000000000000E+00   0.00000000000000E+00   0.00000000000000E+00
      5.99087158555805E-17   3.56288862730665E-34   5.99087158555805E-17  -1.17649392304557E-17   6.88785386277483E-03
      6.88785351774106E-03   0.00000000000000E+00   0.00000000000000E+00   1.66684348469257E-09  -1.75665345773027E-34
      1.66684348469257E-09   4.05337882617397E-18
      1.47757077255497E-01
      0.00000000000000E+00   3.60338368748207E-10   0.00000000000000E+00   0.00000000000000E+00  -1.75704232642977E-09
     -1.79360338870056E-34  -1.75704232642977E-09   4.91071638084340E-18   0.00000000000000E+00   0.00000000000000E+00
      0.00000000000000E+00   0.00000000000000E+00   0.00000000000000E+00   0.00000000000000E+00   0.00000000000000E+00
      2.79439155132972E-18   0.00000000000000E+00   0.00000000000000E+00   0.00000000000000E+00   0.00000000000000E+00
      7.45002353402533E-17   3.74118866629852E-34   7.45002353402533E-17  -1.17646865281171E-17   7.38785386277483E-03
      7.38785349906206E-03   0.00000000000000E+00   0.00000000000000E+00   1.75704225192954E-09  -1.94758527759796E-34
      1.75704225192954E-09   4.05957859594392E-18
      1.57757077255497E-01
      0.00000000000000E+00   3.78122611079467E-10   0.00000000000000E+00   0.00000000000000E+00  -1.84371313617560E-09
     -1.85287070873117E-34  -1.84371313617560E-09   4.91054714519751E-18   0.00000000000000E+00   0.00000000000000E+00
      0.00000000000000E+00   0.00000000000000E+00   0.00000000000000E+00   0.00000000000000E+00   0.00000000000000E+00
      2.78810939894915E-18   0.00000000000000E+00   0.00000000000000E+00   0.00000000000000E+00   0.00000000000000E+00
      7.32795840729233E-17   3.48552066175110E-34   7.32795840729233E-17  -1.17644361666100E-17   7.88785386277484E-03
      7.88785348111279E-03   0.00000000000000E+00   0.00000000000000E+00   1.84371306289602E-09  -1.63264995301993E-34
      1.84371306289602E-09   4.06577962246333E-18
      1.67757077255497E-01
      0.00000000000000E+00   3.95208101959773E-10   0.00000000000000E+00   0.00000000000000E+00  -1.92697403157674E-09
     -1.65929232065477E-34  -1.92697403157674E-09   4.91037793602484E-18   0.00000000000000E+00   0.00000000000000E+00
      0.00000000000000E+00   0.00000000000000E+00   0.00000000000000E+00   0.00000000000000E+00   0.00000000000000E+00
      2.78182829466706E-18   0.00000000000000E+00   0.00000000000000E+00   0.00000000000000E+00   0.00000000000000E+00
      7.20688130615338E-17   3.18531253000395E-34   7.20688130615338E-17  -1.17641881289793E-17   8.38785386277484E-03
      8.38785346386892E-03   0.00000000000000E+00   0.00000000000000E+00   1.92697395950793E-09  -1.52602020934919E-34
      1.92697395950793E-09   4.07198189828746E-18
      1.77757077255497E-01
      0.00000000000000E+00   4.11618420663685E-10   0.00000000000000E+00   0.00000000000000E+00  -2.00694050977338E-09
     -1.90026576727775E-34  -2.00694050977338E-09   4.91020875305440E-18   0.00000000000000E+00   0.00000000000000E+00
      0.00000000000000E+00   0.00000000000000E+00   0.00000000000000E+00   0.00000000000000E+00   0.00000000000000E+00
      2.77554822934478E-18   0.00000000000000E+00   0.00000000000000E+00   0.00000000000000E+00   0.00000000000000E+00
      8.07320612079781E-17   3.56481040016739E-34   8.07320612079781E-17  -1.17639423984382E-17   8.88785386277484E-03
      8.88785344730665E-03   0.00000000000000E+00   0.00000000000000E+00   2.00694042904132E-09  -1.66454463288964E-34
      2.00694042904132E-09   4.07818541603909E-18
      1.87757077255497E-01
      0.00000000000000E+00   4.27376630149402E-10   0.00000000000000E+00   0.00000000000000E+00  -2.08372538423905E-09
     -1.78297254196586E-34  -2.08372538423905E-09   4.91003959601550E-18   0.00000000000000E+00   0.00000000000000E+00
      0.00000000000000E+00   0.00000000000000E+00   0.00000000000000E+00   0.00000000000000E+00   0.00000000000000E+00
      2.76926919391397E-18   0.00000000000000E+00   0.00000000000000E+00   0.00000000000000E+00   0.00000000000000E+00
      6.96954153004049E-17   3.16423558782579E-34   6.96954153004049E-17  -1.17636989583062E-17   9.38785386277484E-03
      9.38785343140269E-03   0.00000000000000E+00   0.00000000000000E+00   2.08372531454364E-09  -1.38126304585993E-34
      2.08372531454364E-09   4.08439016837677E-18
      1.97757077255497E-01
      0.00000000000000E+00   4.42505175284867E-10   0.00000000000000E+00   0.00000000000000E+00  -2.15743870446144E-09