DF-ISE text

Info {
  version   = 1.0
  type      = xyplot
  datasets  = [
    "time"
    "source OuterVoltage" "source InnerVoltage" "source QuasiFermiPotential" "source DisplacementCurrent" "source eCurrent"
    "source hCurrent" "source TotalCurrent" "source Charge" "gate OuterVoltage" "gate InnerVoltage"
    "gate QuasiFermiPotential" "gate DisplacementCurrent" "gate eCurrent" "gate hCurrent" "gate TotalCurrent"
    "gate Charge" "substrate OuterVoltage" "substrate InnerVoltage" "substrate QuasiFermiPotential" "substrate DisplacementCurrent"
    "substrate eCurrent" "substrate hCurrent" "substrate TotalCurrent" "substrate Charge" "drain OuterVoltage"
    "drain InnerVoltage" "drain QuasiFermiPotential" "drain DisplacementCurrent" "drain eCurrent" "drain hCurrent"
    "drain TotalCurrent" "drain Charge" ]
  functions = [
    Time
    OuterVoltage InnerVoltage QuasiFermiPotential DisplacementCurrent eCurrent
    hCurrent TotalCurrent Charge OuterVoltage InnerVoltage
    QuasiFermiPotential DisplacementCurrent eCurrent hCurrent TotalCurrent
    Charge OuterVoltage InnerVoltage QuasiFermiPotential DisplacementCurrent
    eCurrent hCurrent TotalCurrent Charge OuterVoltage
    InnerVoltage QuasiFermiPotential DisplacementCurrent eCurrent hCurrent
    TotalCurrent Charge ]
}

Data {
      0.00000000000000E+00
      0.00000000000000E+00   0.00000000000000E+00   0.00000000000000E+00   0.00000000000000E+00   5.37953465091491E-22
     -1.28768470647412E-34   5.37953465091362E-22   4.77665195646319E-18   0.00000000000000E+00   0.00000000000000E+00
      0.00000000000000E+00   0.00000000000000E+00   0.00000000000000E+00   0.00000000000000E+00   0.00000000000000E+00
      3.77397278323621E-18   0.00000000000000E+00   0.00000000000000E+00   0.00000000000000E+00   0.00000000000000E+00
     -2.32701768807299E-21   2.91511400084136E-34  -2.32701768807270E-21  -1.24503846769056E-17   0.00000000000000E+00
      0.00000000000000E+00   0.00000000000000E+00   0.00000000000000E+00   1.78906422298150E-21  -1.62742929436723E-34
      1.78906422298133E-21   3.89975993720620E-18
      0.00000000000000E+00
      0.00000000000000E+00   0.00000000000000E+00   0.00000000000000E+00   0.00000000000000E+00  -1.05372536186037E-20
     -1.22845521917899E-34  -1.05372536186038E-20   4.77490786968751E-18   0.00000000000000E+00   0.00000000000000E+00
      0.00000000000000E+00   0.00000000000000E+00   0.00000000000000E+00   0.00000000000000E+00   0.00000000000000E+00
      3.76785263092786E-18   0.00000000000000E+00   0.00000000000000E+00   0.00000000000000E+00   0.00000000000000E+00
      1.97650855015163E-20   2.76258242909306E-34   1.97650855015165E-20  -1.24412913939385E-17   0.00000000000000E+00
      0.00000000000000E+00   0.00000000000000E+00   0.00000000000000E+00  -9.22783188291260E-21  -1.53412720991407E-34
     -9.22783188291275E-21   3.89853089332311E-18
      1.00000000000000E-03
      0.00000000000000E+00   2.78809456769974E-11   0.00000000000000E+00   0.00000000000000E+00  -1.17799500431139E-10
     -1.36151431100151E-34  -1.17799500431139E-10   4.77465418690093E-18   0.00000000000000E+00   0.00000000000000E+00
      0.00000000000000E+00   0.00000000000000E+00   0.00000000000000E+00   0.00000000000000E+00   0.00000000000000E+00
      3.75805783837039E-18   0.00000000000000E+00   0.00000000000000E+00   0.00000000000000E+00   0.00000000000000E+00
      3.10298635288976E-20   2.96000813765319E-34   3.10298635288979E-20  -1.24410126664148E-17   8.60000000000000E-04
      8.59999971732665E-04   0.00000000000000E+00   0.00000000000000E+00   1.17799500400110E-10  -1.59849382665168E-34
      1.17799500400110E-10   3.90830064114352E-18
      2.08666666666667E-03
      0.00000000000000E+00   5.64399783994305E-11   0.00000000000000E+00   0.00000000000000E+00  -2.38452445164034E-10
     -1.38893520438548E-34  -2.38452445164034E-10   4.77437856924250E-18   0.00000000000000E+00   0.00000000000000E+00
      0.00000000000000E+00   0.00000000000000E+00   0.00000000000000E+00   0.00000000000000E+00   0.00000000000000E+00
      3.74741676519160E-18   0.00000000000000E+00   0.00000000000000E+00   0.00000000000000E+00   0.00000000000000E+00
      4.54442570479526E-16   3.04219692341368E-34   4.54442570479526E-16  -1.24407156072406E-17   1.79453333333333E-03
      1.79453327611142E-03   0.00000000000000E+00   0.00000000000000E+00   2.38451990721463E-10  -1.65326171902821E-34
      2.38451990721463E-10   3.91892027280651E-18
      3.28200000000000E-03
      0.00000000000000E+00   8.57978704642374E-11   0.00000000000000E+00   0.00000000000000E+00  -3.62463457948842E-10
     -1.34151303208652E-34  -3.62463457948842E-10   4.77407545038937E-18   0.00000000000000E+00   0.00000000000000E+00
      0.00000000000000E+00   0.00000000000000E+00   0.00000000000000E+00   0.00000000000000E+00   0.00000000000000E+00
      3.73571466227232E-18   0.00000000000000E+00   0.00000000000000E+00   0.00000000000000E+00   0.00000000000000E+00
      2.08170491818165E-21   3.18301580294425E-34   2.08170491818196E-21  -1.24403957518585E-17   2.82252000000000E-03
      2.82251991301422E-03   0.00000000000000E+00   0.00000000000000E+00   3.62463457946760E-10  -1.84150277085773E-34
      3.62463457946760E-10   3.93060563919674E-18
      4.58889777777778E-03
      0.00000000000000E+00   1.15532901747448E-10   0.00000000000000E+00   0.00000000000000E+00  -4.88049119899696E-10
     -1.39103844881758E-34  -4.88049119899696E-10   4.77374411188184E-18   0.00000000000000E+00   0.00000000000000E+00
      0.00000000000000E+00   0.00000000000000E+00   0.00000000000000E+00   0.00000000000000E+00   0.00000000000000E+00
      3.72292398624492E-18   0.00000000000000E+00   0.00000000000000E+00   0.00000000000000E+00   0.00000000000000E+00
     -3.06937643848402E-21   2.93652220543499E-34  -3.06937643848373E-21  -1.24400542020611E-17   3.94645208888889E-03
      3.94645197175704E-03   0.00000000000000E+00   0.00000000000000E+00   4.88049119902766E-10  -1.54548375661741E-34
      4.88049119902766E-10   3.94338610393437E-18
      6.01777268148148E-03
      0.00000000000000E+00   1.45376715173778E-10   0.00000000000000E+00   0.00000000000000E+00  -6.14073097715860E-10
     -1.50425572657795E-34  -6.14073097715860E-10   4.77338193218987E-18   0.00000000000000E+00   0.00000000000000E+00
      0.00000000000000E+00   0.00000000000000E+00   0.00000000000000E+00   0.00000000000000E+00   0.00000000000000E+00
      3.70894375945885E-18   0.00000000000000E+00   0.00000000000000E+00   0.00000000000000E+00   0.00000000000000E+00
      2.17283747230030E-20   3.06374168222161E-34   2.17283747230033E-20  -1.24396903661178E-17   5.17528450607408E-03
      5.17528435868620E-03   0.00000000000000E+00   0.00000000000000E+00   6.14073097694131E-10  -1.55948595564367E-34
      6.14073097694131E-10   3.95736467446908E-18
      7.58000924286420E-03
      0.00000000000000E+00   1.75034015783146E-10   0.00000000000000E+00   0.00000000000000E+00  -7.39286759020408E-10
     -1.67460830511584E-34  -7.39286759020408E-10   4.77298604694436E-18   0.00000000000000E+00   0.00000000000000E+00
      0.00000000000000E+00   0.00000000000000E+00   0.00000000000000E+00   0.00000000000000E+00   0.00000000000000E+00
      3.69366367761547E-18   0.00000000000000E+00   0.00000000000000E+00   0.00000000000000E+00   0.00000000000000E+00
      2.90272848277751E-20   2.86768052906738E-34   2.90272848277754E-20  -1.24393038317884E-17   6.51880794886321E-03
      6.51880777140866E-03   0.00000000000000E+00   0.00000000000000E+00   7.39286758991380E-10  -1.19307222395154E-34
      7.39286758991380E-10   3.97265410722860E-18
      9.28805454997597E-03
      0.00000000000000E+00   2.04185976934052E-10   0.00000000000000E+00   0.00000000000000E+00  -8.62343031971924E-10
     -1.18268781132376E-34  -8.62343031971924E-10   4.77255332647765E-18   0.00000000000000E+00   0.00000000000000E+00
      0.00000000000000E+00   0.00000000000000E+00   0.00000000000000E+00   0.00000000000000E+00   0.00000000000000E+00
      3.67696325192071E-18   0.00000000000000E+00   0.00000000000000E+00   0.00000000000000E+00   0.00000000000000E+00
     -1.21753405209057E-20   2.66424315862568E-34  -1.21753405209054E-20  -1.24388944163723E-17   7.98772691297934E-03
      7.98772670597077E-03   0.00000000000000E+00   0.00000000000000E+00   8.62343031984099E-10  -1.48155534730193E-34
      8.62343031984099E-10   3.98937783797400E-18
      1.11555174190848E-02
      0.00000000000000E+00   2.32496537849930E-10   0.00000000000000E+00   0.00000000000000E+00  -9.81824200724629E-10
     -1.73466202655368E-34  -9.81824200724629E-10   4.77208035126353E-18   0.00000000000000E+00   0.00000000000000E+00
      0.00000000000000E+00   0.00000000000000E+00   0.00000000000000E+00   0.00000000000000E+00   0.00000000000000E+00
      3.65871087198095E-18   0.00000000000000E+00   0.00000000000000E+00   0.00000000000000E+00   0.00000000000000E+00
      1.67525397774490E-20   3.26910064667071E-34   1.67525397774494E-20  -1.24384622246827E-17   9.59374498041296E-03
      9.59374474470365E-03   0.00000000000000E+00   0.00000000000000E+00   9.81824200707877E-10  -1.53443862011704E-34
      9.81824200707877E-10   4.00767100143823E-18
      1.31972768226439E-02
      0.00000000000000E+00   2.59622101187029E-10   0.00000000000000E+00   0.00000000000000E+00  -1.09628217912129E-09
     -1.16028913812070E-34  -1.09628217912129E-09   4.77156338505354E-18   0.00000000000000E+00   0.00000000000000E+00
      0.00000000000000E+00   0.00000000000000E+00   0.00000000000000E+00   0.00000000000000E+00   0.00000000000000E+00
      3.63876278191887E-18   0.00000000000000E+00   0.00000000000000E+00   0.00000000000000E+00   0.00000000000000E+00
     -1.85453504354867E-20   2.45150710107063E-34  -1.85453504354865E-20  -1.24380077156947E-17   1.13496580674737E-02
      1.13496578042648E-02   0.00000000000000E+00   0.00000000000000E+00   1.09628217913983E-09  -1.29121796294993E-34
      1.09628217913983E-09   4.02768154872227E-18
      1.54296004372017E-02
      0.00000000000000E+00   2.85223386304248E-10   0.00000000000000E+00   0.00000000000000E+00  -1.20428987062192E-09
     -1.55738605203379E-34  -1.20428987062192E-09   4.77099834547632E-18   0.00000000000000E+00   0.00000000000000E+00
      0.00000000000000E+00   0.00000000000000E+00   0.00000000000000E+00   0.00000000000000E+00   0.00000000000000E+00
      3.61696196147629E-18   0.00000000000000E+00   0.00000000000000E+00   0.00000000000000E+00   0.00000000000000E+00
      1.44585678726391E-20   2.82094733739922E-34   1.44585678726394E-20  -1.24375317782968E-17   1.32694563759935E-02
      1.32694560868307E-02   0.00000000000000E+00   0.00000000000000E+00   1.20428987060746E-09  -1.26356128536542E-34
      1.20428987060746E-09   4.04957147134417E-18
      1.78702742557850E-02
      0.00000000000000E+00   3.08981753782049E-10   0.00000000000000E+00   0.00000000000000E+00  -1.30450968784350E-09
     -1.40452206203328E-34  -1.30450968784350E-09   4.77038077183777E-18   0.00000000000000E+00   0.00000000000000E+00
      0.00000000000000E+00   0.00000000000000E+00   0.00000000000000E+00   0.00000000000000E+00   0.00000000000000E+00
      3.59313690066250E-18   0.00000000000000E+00   0.00000000000000E+00   0.00000000000000E+00   0.00000000000000E+00
      8.92228151830847E-21   2.42328609176872E-34   8.92228151830872E-21  -1.24370358144218E-17   1.53684358599751E-02
      1.53684355467271E-02   0.00000000000000E+00   0.00000000000000E+00   1.30450968783458E-09  -1.01876402973544E-34
      1.30450968783458E-09   4.07351814192156E-18
      2.05387442974361E-02
      0.00000000000000E+00   3.30615992697553E-10   0.00000000000000E+00   0.00000000000000E+00  -1.39576514506784E-09
     -1.47884049042390E-34  -1.39576514506784E-09   4.76970578989173E-18   0.00000000000000E+00   0.00000000000000E+00
      0.00000000000000E+00   0.00000000000000E+00   0.00000000000000E+00   0.00000000000000E+00   0.00000000000000E+00
      3.56710026225410E-18   0.00000000000000E+00   0.00000000000000E+00   0.00000000000000E+00   0.00000000000000E+00
      1.37021743754050E-20   2.49638454480297E-34   1.37021743754052E-20  -1.24365218348190E-17   1.76633200957950E-02
      1.76633197606156E-02   0.00000000000000E+00   0.00000000000000E+00   1.39576514505414E-09  -1.01754405437906E-34
      1.39576514505414E-09   4.09971578267315E-18
      2.34562715429746E-02
      0.00000000000000E+00   3.49902989222898E-10   0.00000000000000E+00   0.00000000000000E+00  -1.47712807232024E-09
     -1.36867636328479E-34  -1.47712807232024E-09   4.76896807317683E-18   0.00000000000000E+00   0.00000000000000E+00
      0.00000000000000E+00   0.00000000000000E+00   0.00000000000000E+00   0.00000000000000E+00   0.00000000000000E+00
      3.53864741453543E-18   0.00000000000000E+00   0.00000000000000E+00   0.00000000000000E+00   0.00000000000000E+00
      1.23512352486342E-21   2.34470864585833E-34   1.23512352486365E-21  -1.24359925599766E-17   2.01723935269581E-02
      2.01723931722277E-02   0.00000000000000E+00   0.00000000000000E+00   1.47712807231900E-09  -9.76032282573541E-35
      1.47712807231900E-09   4.12837707226434E-18
      2.66461013314300E-02
      0.00000000000000E+00   3.66698598341773E-10   0.00000000000000E+00   0.00000000000000E+00  -1.54800685704725E-09
     -2.05471432537219E-34  -1.54800685704725E-09   4.76816180068795E-18   0.00000000000000E+00   0.00000000000000E+00
      0.00000000000000E+00   0.00000000000000E+00   0.00000000000000E+00   0.00000000000000E+00   0.00000000000000E+00
      3.50755482614129E-18   0.00000000000000E+00   0.00000000000000E+00   0.00000000000000E+00   0.00000000000000E+00
     -2.95123698763459E-20   2.85435405436873E-34  -2.95123698763457E-20  -1.24354515315226E-17   2.29156471450298E-02
      2.29156467732746E-02   0.00000000000000E+00   0.00000000000000E+00   1.54800685707676E-09  -7.99639728996546E-35
      1.54800685707676E-09   4.15973490469340E-18
      3.01336485668079E-02
      0.00000000000000E+00   3.80958262992915E-10   0.00000000000000E+00   0.00000000000000E+00  -1.60823294567295E-09
     -1.36050964710536E-34  -1.60823294567295E-09   4.76728061044006E-18   0.00000000000000E+00   0.00000000000000E+00
      0.00000000000000E+00   0.00000000000000E+00   0.00000000000000E+00   0.00000000000000E+00   0.00000000000000E+00
      3.47357830585765E-18   0.00000000000000E+00   0.00000000000000E+00   0.00000000000000E+00   0.00000000000000E+00
     -1.15276748997006E-20   2.08794712391767E-34  -1.15276748997003E-20  -1.24349032284996E-17   2.59149377674548E-02
      2.59149373812471E-02   0.00000000000000E+00   0.00000000000000E+00   1.60823294568447E-09  -7.27437476812316E-35
      1.60823294568447E-09   4.19404431220185E-18
      3.39467002108211E-02
      0.00000000000000E+00   3.92755246133576E-10   0.00000000000000E+00   0.00000000000000E+00  -1.65813714235035E-09
     -1.50594678331098E-34  -1.65813714235035E-09   4.76631754851833E-18   0.00000000000000E+00   0.00000000000000E+00
      0.00000000000000E+00   0.00000000000000E+00   0.00000000000000E+00   0.00000000000000E+00   0.00000000000000E+00
      3.43645106984789E-18   0.00000000000000E+00   0.00000000000000E+00   0.00000000000000E+00   0.00000000000000E+00
     -1.76701739036762E-20   2.13761206021859E-34  -1.76701739036760E-20  -1.24343531848905E-17   2.91941621813061E-02
      2.91941617831453E-02   0.00000000000000E+00   0.00000000000000E+00   1.65813714236802E-09  -6.31665276907611E-35
      1.65813714236802E-09   4.23158456652435E-18
      3.81156366749421E-02
      0.00000000000000E+00   4.02292098084830E-10   0.00000000000000E+00   0.00000000000000E+00  -1.69859645361551E-09
     -1.11963698625473E-34  -1.69859645361551E-09   4.76526501331636E-18   0.00000000000000E+00   0.00000000000000E+00
      0.00000000000000E+00   0.00000000000000E+00   0.00000000000000E+00   0.00000000000000E+00   0.00000000000000E+00
      3.39588162133354E-18   0.00000000000000E+00   0.00000000000000E+00   0.00000000000000E+00   0.00000000000000E+00
     -4.43240675945824E-21   1.58926303195547E-34  -4.43240675945808E-21  -1.24338081095693E-17   3.27794475404502E-02
      3.27794471326317E-02   0.00000000000000E+00   0.00000000000000E+00   1.69859645361994E-09  -4.69626045700730E-35
      1.69859645361994E-09   4.27266147491937E-18
      4.26736738757145E-02
      0.00000000000000E+00   4.09900323594403E-10   0.00000000000000E+00   0.00000000000000E+00  -1.73103054850238E-09
     -1.44967703355661E-34  -1.73103054850238E-09   4.76411469444125E-18   0.00000000000000E+00   0.00000000000000E+00
      0.00000000000000E+00   0.00000000000000E+00   0.00000000000000E+00   0.00000000000000E+00   0.00000000000000E+00
      3.35155142038547E-18   0.00000000000000E+00   0.00000000000000E+00   0.00000000000000E+00   0.00000000000000E+00
     -8.08307137776368E-21   1.96538408611774E-34  -8.08307137776348E-21  -1.24332759999130E-17   3.66993595331145E-02
      3.66993591175991E-02   0.00000000000000E+00   0.00000000000000E+00   1.73103054851046E-09  -5.15707052561132E-35
      1.73103054851046E-09   4.31760988508629E-18
      4.76571278818923E-02
      0.00000000000000E+00   4.16022729101555E-10   0.00000000000000E+00   0.00000000000000E+00  -1.75732469438447E-09
     -1.55994879220686E-34  -1.75732469438447E-09   4.76285750609553E-18   0.00000000000000E+00   0.00000000000000E+00
      0.00000000000000E+00   0.00000000000000E+00   0.00000000000000E+00   0.00000000000000E+00   0.00000000000000E+00
      3.30311232832384E-18   0.00000000000000E+00   0.00000000000000E+00   0.00000000000000E+00   0.00000000000000E+00
     -4.69903098661533E-21   1.93170776617058E-34  -4.69903098661514E-21  -1.24327662525032E-17   4.09851299784274E-02
      4.09851295567300E-02   0.00000000000000E+00   0.00000000000000E+00   1.75732469438917E-09  -3.71758973963721E-35
      1.75732469438917E-09   4.36679641808380E-18
      5.31057042619801E-02
      0.00000000000000E+00   4.21174942441564E-10   0.00000000000000E+00   0.00000000000000E+00  -1.77966565202093E-09
     -1.51470228221893E-34  -1.77966565202093E-09   4.76148351454949E-18   0.00000000000000E+00   0.00000000000000E+00
      0.00000000000000E+00   0.00000000000000E+00   0.00000000000000E+00   0.00000000000000E+00   0.00000000000000E+00
      3.25018380339820E-18   0.00000000000000E+00   0.00000000000000E+00   0.00000000000000E+00   0.00000000000000E+00
      6.97767422192899E-20   1.86887836801035E-34   6.97767422192901E-20  -1.24322897635857E-17   4.56709056653029E-02
      4.56709052384184E-02   0.00000000000000E+00   0.00000000000000E+00   1.77966565195115E-09  -3.54176085791413E-35
      1.77966565195115E-09   4.42062244563798E-18
      5.90628144375427E-02
      0.00000000000000E+00   4.25881906625549E-10   0.00000000000000E+00   0.00000000000000E+00  -1.80027192889070E-09
     -1.48429971611110E-34  -1.80027192889070E-09   4.75998185982346E-18   0.00000000000000E+00   0.00000000000000E+00
      0.00000000000000E+00   0.00000000000000E+00   0.00000000000000E+00   0.00000000000000E+00   0.00000000000000E+00
      3.19234984191888E-18   0.00000000000000E+00   0.00000000000000E+00   0.00000000000000E+00   0.00000000000000E+00
     -1.15893047167133E-19   1.79995309084199E-34  -1.15893047167133E-19  -1.24318590350414E-17   5.07940204162867E-02
      5.07940199846811E-02   0.00000000000000E+00   0.00000000000000E+00   1.80027192900659E-09  -3.15653374730889E-35
      1.80027192900659E-09   4.47952733329906E-18
      6.55759215628244E-02
      0.00000000000000E+00   4.30593508085641E-10   0.00000000000000E+00   0.00000000000000E+00  -1.82103407776668E-09
     -2.02141859000819E-34  -1.82103407776668E-09   4.75834067095180E-18   0.00000000000000E+00   0.00000000000000E+00
      0.00000000000000E+00   0.00000000000000E+00   0.00000000000000E+00   0.00000000000000E+00   0.00000000000000E+00
      3.12915564551779E-18   0.00000000000000E+00   0.00000000000000E+00   0.00000000000000E+00   0.00000000000000E+00
     -1.08065307162620E-20   2.26218468321846E-34  -1.08065307162618E-20  -1.24314882859573E-17   5.63952925440290E-02
      5.63952921077146E-02   0.00000000000000E+00   0.00000000000000E+00   1.82103407777749E-09  -2.40766093210273E-35
      1.82103407777749E-09   4.54399196948771E-18
      7.26534979722973E-02
      0.00000000000000E+00   4.35596125777433E-10   0.00000000000000E+00   0.00000000000000E+00  -1.84314585526508E-09
     -1.64580295113965E-34  -1.84314585526508E-09   4.75655790781649E-18   0.00000000000000E+00   0.00000000000000E+00
      0.00000000000000E+00   0.00000000000000E+00   0.00000000000000E+00   0.00000000000000E+00   0.00000000000000E+00
      3.06052490655740E-18   0.00000000000000E+00   0.00000000000000E+00   0.00000000000000E+00   0.00000000000000E+00
      6.97514203653141E-21   1.85352847735627E-34   6.97514203653160E-21  -1.24311950221187E-17   6.24820082561757E-02
      6.24820078148760E-02   0.00000000000000E+00   0.00000000000000E+00   1.84314585525810E-09  -2.07725526216625E-35
      1.84314585525810E-09   4.61411220774480E-18
      8.03444643372578E-02
      0.00000000000000E+00   4.41086371023366E-10   0.00000000000000E+00   0.00000000000000E+00  -1.86744058504710E-09
     -1.58908905246373E-34  -1.86744058504710E-09   4.75462134364780E-18   0.00000000000000E+00   0.00000000000000E+00
      0.00000000000000E+00   0.00000000000000E+00   0.00000000000000E+00   0.00000000000000E+00   0.00000000000000E+00
      2.98598899631763E-18   0.00000000000000E+00   0.00000000000000E+00   0.00000000000000E+00   0.00000000000000E+00
     -7.34809197484255E-21   1.76470090649733E-34  -7.34809197484238E-21  -1.24309953407629E-17   6.90962393300417E-02
      6.90962388832841E-02   0.00000000000000E+00   0.00000000000000E+00   1.86744058505445E-09  -1.75611854033599E-35
      1.86744058505445E-09   4.69038500079750E-18
      8.87019811205149E-02
      0.00000000000000E+00   4.47168167026713E-10   0.00000000000000E+00   0.00000000000000E+00  -1.89436183240848E-09
     -1.49703247611954E-34  -1.89436183240848E-09   4.75251769832107E-18   0.00000000000000E+00   0.00000000000000E+00
      0.00000000000000E+00   0.00000000000000E+00   0.00000000000000E+00   0.00000000000000E+00   0.00000000000000E+00
      2.90503869434432E-18   0.00000000000000E+00   0.00000000000000E+00   0.00000000000000E+00   0.00000000000000E+00
     -2.47338611662964E-20   1.62505984183371E-34  -2.47338611662962E-20  -1.24309069738460E-17   7.62837037636428E-02
      7.62837033108487E-02   0.00000000000000E+00   0.00000000000000E+00   1.89436183243322E-09  -1.28027365714171E-35
      1.89436183243322E-09   4.77335058118059E-18
      9.77838160249876E-02
      0.00000000000000E+00   4.53859841228160E-10   0.00000000000000E+00   0.00000000000000E+00  -1.92398827261192E-09
     -1.36250226499380E-34  -1.92398827261192E-09   4.75023254863942E-18   0.00000000000000E+00   0.00000000000000E+00
      0.00000000000000E+00   0.00000000000000E+00   0.00000000000000E+00   0.00000000000000E+00   0.00000000000000E+00
      2.81712069450868E-18   0.00000000000000E+00   0.00000000000000E+00   0.00000000000000E+00   0.00000000000000E+00
     -4.16138255208850E-20   1.47523244846023E-34  -4.16138255208849E-20  -1.24309493565882E-17   8.40940817814893E-02
      8.40940813220570E-02   0.00000000000000E+00   0.00000000000000E+00   1.92398827265353E-09  -1.12730183466433E-35
      1.92398827265353E-09   4.86359611344011E-18
      1.07652743287848E-01
      0.00000000000000E+00   4.61163408913190E-10   0.00000000000000E+00   0.00000000000000E+00  -1.95634799396639E-09
     -1.43573762399459E-34  -1.95634799396639E-09   4.74775022201726E-18   0.00000000000000E+00   0.00000000000000E+00
      0.00000000000000E+00   0.00000000000000E+00   0.00000000000000E+00   0.00000000000000E+00   0.00000000000000E+00
      2.72163365537433E-18   0.00000000000000E+00   0.00000000000000E+00   0.00000000000000E+00   0.00000000000000E+00
     -7.13522569719285E-20   1.51732944886494E-34  -7.13522569719284E-20  -1.24311435061518E-17   9.25813592275492E-02
      9.25813587608751E-02   0.00000000000000E+00   0.00000000000000E+00   1.95634799403775E-09  -8.15918248703466E-36
      1.95634799403775E-09   4.96175962876021E-18
      1.17652743287848E-01
      0.00000000000000E+00   4.68583784558377E-10   0.00000000000000E+00   0.00000000000000E+00  -1.98926497628143E-09
     -1.52556698042913E-34  -1.98926497628143E-09   4.74523575908897E-18   0.00000000000000E+00   0.00000000000000E+00
      0.00000000000000E+00   0.00000000000000E+00   0.00000000000000E+00   0.00000000000000E+00   0.00000000000000E+00
      2.62492607510543E-18   0.00000000000000E+00   0.00000000000000E+00   0.00000000000000E+00   0.00000000000000E+00
     -4.51025619016644E-20   1.59139873442894E-34  -4.51025619016643E-20  -1.24314821696187E-17   1.01181359227549E-01
      1.01181358753523E-01   0.00000000000000E+00   0.00000000000000E+00   1.98926497632654E-09  -6.58317539998115E-36
      1.98926497632654E-09   5.06132033542438E-18
      1.27652743287848E-01
      0.00000000000000E+00   4.76034777176585E-10   0.00000000000000E+00   0.00000000000000E+00  -2.02235896339674E-09
     -1.75679196608021E-34  -2.02235896339674E-09   4.74272205405898E-18   0.00000000000000E+00   0.00000000000000E+00
      0.00000000000000E+00   0.00000000000000E+00   0.00000000000000E+00   0.00000000000000E+00   0.00000000000000E+00
      2.52826115992332E-18   0.00000000000000E+00   0.00000000000000E+00   0.00000000000000E+00   0.00000000000000E+00
     -9.83315922095050E-21   1.79838734525155E-34  -9.83315922095032E-21  -1.24319496243295E-17   1.09781359227549E-01
      1.09781358746142E-01   0.00000000000000E+00   0.00000000000000E+00   2.02235896340657E-09  -4.15953791713345E-36
      2.02235896340657E-09   5.16096641034727E-18
      1.37652743287848E-01
      0.00000000000000E+00   4.83528594169761E-10   0.00000000000000E+00   0.00000000000000E+00  -2.05568252782349E-09
     -1.25674424563079E-34  -2.05568252782349E-09   4.74020904105350E-18   0.00000000000000E+00   0.00000000000000E+00
      0.00000000000000E+00   0.00000000000000E+00   0.00000000000000E+00   0.00000000000000E+00   0.00000000000000E+00
      2.43163442994934E-18   0.00000000000000E+00   0.00000000000000E+00   0.00000000000000E+00   0.00000000000000E+00
     -2.59443450877284E-21   1.29168895053840E-34  -2.59443450877271E-21  -1.24325334694499E-17   1.18381359227549E-01
      1.18381358738715E-01   0.00000000000000E+00   0.00000000000000E+00   2.05568252782609E-09  -3.49447049076174E-36
      2.05568252782609E-09   5.26068999844708E-18
      1.47652743287848E-01
      0.00000000000000E+00   4.91075198042524E-10   0.00000000000000E+00   0.00000000000000E+00  -2.08927858655631E-09
     -1.58130471167383E-34  -2.08927858655631E-09   4.73769666223204E-18   0.00000000000000E+00   0.00000000000000E+00
      0.00000000000000E+00   0.00000000000000E+00   0.00000000000000E+00   0.00000000000000E+00   0.00000000000000E+00
      2.33504201718404E-18   0.00000000000000E+00   0.00000000000000E+00   0.00000000000000E+00   0.00000000000000E+00
      3.38239816765203E-21   1.60758937310162E-34   3.38239816765219E-21  -1.24332226907509E-17   1.26981359227549E-01
      1.26981358731232E-01   0.00000000000000E+00   0.00000000000000E+00   2.08927858655293E-09  -2.62846614277935E-36
      2.08927858655293E-09   5.36048401133478E-18
      1.57652743287848E-01
      0.00000000000000E+00   4.98681853360339E-10   0.00000000000000E+00   0.00000000000000E+00  -2.12317755155344E-09
     -1.37555597768028E-34  -2.12317755155344E-09   4.73518486486417E-18   0.00000000000000E+00   0.00000000000000E+00
      0.00000000000000E+00   0.00000000000000E+00   0.00000000000000E+00   0.00000000000000E+00   0.00000000000000E+00
      2.23848052459195E-18   0.00000000000000E+00   0.00000000000000E+00   0.00000000000000E+00   0.00000000000000E+00
     -6.39511834201222E-21   1.39456332014139E-34  -6.39511834201208E-21  -1.24340074264048E-17   1.35581359227549E-01
      1.35581358723688E-01   0.00000000000000E+00   0.00000000000000E+00   2.12317755155983E-09  -1.90073424611064E-36
      2.12317755155983E-09   5.46034203694870E-18
      1.67652743287848E-01
      0.00000000000000E+00   5.06352478537619E-10   0.00000000000000E+00   0.00000000000000E+00  -2.15739498327028E-09
     -1.25812567068216E-34  -2.15739498327028E-09   4.73267360078633E-18   0.00000000000000E+00   0.00000000000000E+00
      0.00000000000000E+00   0.00000000000000E+00   0.00000000000000E+00   0.00000000000000E+00   0.00000000000000E+00
      2.14194696156833E-18   0.00000000000000E+00   0.00000000000000E+00   0.00000000000000E+00   0.00000000000000E+00
     -1.45493125530353E-20   1.27171601795912E-34  -1.45493125530352E-20  -1.24348788275485E-17   1.44181359227549E-01
      1.44181358716080E-01   0.00000000000000E+00   0.00000000000000E+00   2.15739498328483E-09  -1.35903472769604E-36
      2.15739498328483E-09   5.56025826519389E-18
      1.77652743287848E-01
      0.00000000000000E+00   5.14088204854252E-10   0.00000000000000E+00   0.00000000000000E+00  -2.19193480492107E-09
     -1.24056249780843E-34  -2.19193480492107E-09   4.73016282632840E-18   0.00000000000000E+00   0.00000000000000E+00
      0.00000000000000E+00   0.00000000000000E+00   0.00000000000000E+00   0.00000000000000E+00   0.00000000000000E+00
      2.04543869617456E-18   0.00000000000000E+00   0.00000000000000E+00   0.00000000000000E+00   0.00000000000000E+00
     -1.18470645982825E-20   1.25136743257984E-34  -1.18470645982824E-20  -1.24358289479601E-17   1.52781359227549E-01
      1.52781358708411E-01   0.00000000000000E+00   0.00000000000000E+00   2.19193480493292E-09  -1.08049347714090E-36
      2.19193480493292E-09   5.66022742545715E-18
      1.87652743287848E-01
      0.00000000000000E+00   5.21888470644346E-10   0.00000000000000E+00   0.00000000000000E+00  -2.22679432210566E-09