DF-ISE text

Info {
  version   = 1.0
  type      = xyplot
  datasets  = [
    "time"
    "source OuterVoltage" "source InnerVoltage" "source QuasiFermiPotential" "source DisplacementCurrent" "source eCurrent"
    "source hCurrent" "source TotalCurrent" "source Charge" "gate OuterVoltage" "gate InnerVoltage"
    "gate QuasiFermiPotential" "gate DisplacementCurrent" "gate eCurrent" "gate hCurrent" "gate TotalCurrent"
    "gate Charge" "substrate OuterVoltage" "substrate InnerVoltage" "substrate QuasiFermiPotential" "substrate DisplacementCurrent"
    "substrate eCurrent" "substrate hCurrent" "substrate TotalCurrent" "substrate Charge" "drain OuterVoltage"
    "drain InnerVoltage" "drain QuasiFermiPotential" "drain DisplacementCurrent" "drain eCurrent" "drain hCurrent"
    "drain TotalCurrent" "drain Charge" ]
  functions = [
    Time
    OuterVoltage InnerVoltage QuasiFermiPotential DisplacementCurrent eCurrent
    hCurrent TotalCurrent Charge OuterVoltage InnerVoltage
    QuasiFermiPotential DisplacementCurrent eCurrent hCurrent TotalCurrent
    Charge OuterVoltage InnerVoltage QuasiFermiPotential DisplacementCurrent
    eCurrent hCurrent TotalCurrent Charge OuterVoltage
    InnerVoltage QuasiFermiPotential DisplacementCurrent eCurrent hCurrent
    TotalCurrent Charge ]
}

Data {
      0.00000000000000E+00
      0.00000000000000E+00   0.00000000000000E+00   0.00000000000000E+00   0.00000000000000E+00  -6.86163195969281E-21
      5.62327965500134E-34  -6.86163195969224E-21   5.57938970927765E-18   0.00000000000000E+00   0.00000000000000E+00
      0.00000000000000E+00   0.00000000000000E+00   0.00000000000000E+00   0.00000000000000E+00   0.00000000000000E+00
      4.55774458555274E-18   0.00000000000000E+00   0.00000000000000E+00   0.00000000000000E+00   0.00000000000000E+00
      1.02362748392342E-20  -1.14541251514057E-33   1.02362748392331E-20  -1.48846547211446E-17   0.00000000000000E+00
      0.00000000000000E+00   0.00000000000000E+00   0.00000000000000E+00  -3.37464287954141E-21   5.83084549640434E-34
     -3.37464287954083E-21   4.74752042631418E-18
      0.00000000000000E+00
      0.00000000000000E+00   0.00000000000000E+00   0.00000000000000E+00   0.00000000000000E+00   2.47865407879595E-20
      5.53905839731629E-34   2.47865407879601E-20   5.57733280101127E-18   0.00000000000000E+00   0.00000000000000E+00
      0.00000000000000E+00   0.00000000000000E+00   0.00000000000000E+00   0.00000000000000E+00   0.00000000000000E+00
      4.55057030854281E-18   0.00000000000000E+00   0.00000000000000E+00   0.00000000000000E+00   0.00000000000000E+00
     -1.30141489449894E-19  -1.14102777860149E-33  -1.30141489449895E-19  -1.48737543480293E-17   0.00000000000000E+00
      0.00000000000000E+00   0.00000000000000E+00   0.00000000000000E+00   1.05354948661934E-19   5.87121938869859E-34
      1.05354948661935E-19   4.74585123847523E-18
      1.00000000000000E-03
      0.00000000000000E+00   1.63270812530367E-11   0.00000000000000E+00   0.00000000000000E+00  -8.19540394910845E-11
      5.61528030610261E-34  -8.19540394910845E-11   5.57705159165526E-18   0.00000000000000E+00   0.00000000000000E+00
      0.00000000000000E+00   0.00000000000000E+00   0.00000000000000E+00   0.00000000000000E+00   0.00000000000000E+00
      4.53942164646933E-18   0.00000000000000E+00   0.00000000000000E+00   0.00000000000000E+00   0.00000000000000E+00
     -1.24233762001839E-19  -1.12078040795125E-33  -1.24233762001840E-19  -1.48732972848071E-17   8.60000000000000E-04
      8.59999983606325E-04   0.00000000000000E+00   0.00000000000000E+00   8.19540396153183E-11   5.59252377340989E-34
      8.19540396153183E-11   4.75682404668255E-18
      2.08666666666667E-03
      0.00000000000000E+00   3.30615199247180E-11   0.00000000000000E+00   0.00000000000000E+00  -1.65944925190231E-10
      5.73084140221370E-34  -1.65944925190231E-10   5.57674606098146E-18   0.00000000000000E+00   0.00000000000000E+00
      0.00000000000000E+00   0.00000000000000E+00   0.00000000000000E+00   0.00000000000000E+00   0.00000000000000E+00
      4.52730933832800E-18   0.00000000000000E+00   0.00000000000000E+00   0.00000000000000E+00   0.00000000000000E+00
      1.03217351851222E-15  -1.10866903565537E-33   1.03217351851222E-15  -1.48728073668693E-17   1.79453333333333E-03
      1.79453330013712E-03   0.00000000000000E+00   0.00000000000000E+00   1.65943893016713E-10   5.35584895434003E-34
      1.65943893016713E-10   4.76875196755989E-18
      3.28200000000000E-03
      0.00000000000000E+00   5.02763813482408E-11   0.00000000000000E+00   0.00000000000000E+00  -2.52334996114436E-10
      5.59061825688543E-34  -2.52334996114436E-10   5.57641003685426E-18   0.00000000000000E+00   0.00000000000000E+00
      0.00000000000000E+00   0.00000000000000E+00   0.00000000000000E+00   0.00000000000000E+00   0.00000000000000E+00
      4.51398884586564E-18   0.00000000000000E+00   0.00000000000000E+00   0.00000000000000E+00   0.00000000000000E+00
     -1.84480955534051E-19  -1.10074949607275E-33  -1.84480955534052E-19  -1.48722764911328E-17   2.82252000000000E-03
      2.82251994951940E-03   0.00000000000000E+00   0.00000000000000E+00   2.52334996298917E-10   5.41687670384209E-34
      2.52334996298917E-10   4.78187760841287E-18
      4.58889777777778E-03
      0.00000000000000E+00   6.77264522670404E-11   0.00000000000000E+00   0.00000000000000E+00  -3.39892799917398E-10
      5.20049590410677E-34  -3.39892799917398E-10   5.57604272077128E-18   0.00000000000000E+00   0.00000000000000E+00
      0.00000000000000E+00   0.00000000000000E+00   0.00000000000000E+00   0.00000000000000E+00   0.00000000000000E+00
      4.49942869980785E-18   0.00000000000000E+00   0.00000000000000E+00   0.00000000000000E+00   0.00000000000000E+00
     -8.20105433069699E-20  -1.02850065505075E-33  -8.20105433069710E-20  -1.48717055761918E-17   3.94645208888889E-03
      3.94645202088791E-03   0.00000000000000E+00   0.00000000000000E+00   3.39892799999408E-10   5.08451064640071E-34
      3.39892799999408E-10   4.79623415561275E-18
      6.01777268148148E-03
      0.00000000000000E+00   8.52563557693202E-11   0.00000000000000E+00   0.00000000000000E+00  -4.27836363440841E-10
      5.39630241048605E-34  -4.27836363440841E-10   5.57564120424628E-18   0.00000000000000E+00   0.00000000000000E+00
      0.00000000000000E+00   0.00000000000000E+00   0.00000000000000E+00   0.00000000000000E+00   0.00000000000000E+00
      4.48351382407859E-18   0.00000000000000E+00   0.00000000000000E+00   0.00000000000000E+00   0.00000000000000E+00
     -3.80617349214469E-19  -1.02955894250346E-33  -3.80617349214470E-19  -1.48710925853152E-17   5.17528450607408E-03
      5.17528442047287E-03   0.00000000000000E+00   0.00000000000000E+00   4.27836363821458E-10   4.89928701454849E-34
      4.27836363821458E-10   4.81193755699030E-18
      7.58000924286420E-03
      0.00000000000000E+00   1.02694623420211E-10   0.00000000000000E+00   0.00000000000000E+00  -5.15304358511496E-10
      5.49176281769969E-34  -5.15304358511496E-10   5.57520230914548E-18   0.00000000000000E+00   0.00000000000000E+00
      0.00000000000000E+00   0.00000000000000E+00   0.00000000000000E+00   0.00000000000000E+00   0.00000000000000E+00
      4.46611850283141E-18   0.00000000000000E+00   0.00000000000000E+00   0.00000000000000E+00   0.00000000000000E+00
     -5.83856317322291E-20  -1.01246606264338E-33  -5.83856317322301E-20  -1.48704355791573E-17   6.51880794886321E-03
      6.51880784575401E-03   0.00000000000000E+00   0.00000000000000E+00   5.15304358569881E-10   4.63289780873414E-34
      5.15304358569881E-10   4.82911476718040E-18
      9.28805454997597E-03
      0.00000000000000E+00   1.19855695526356E-10   0.00000000000000E+00   0.00000000000000E+00  -6.01365459826429E-10
      5.72938367895550E-34  -6.01365459826429E-10   5.57472256273622E-18   0.00000000000000E+00   0.00000000000000E+00
      0.00000000000000E+00   0.00000000000000E+00   0.00000000000000E+00   0.00000000000000E+00   0.00000000000000E+00
      4.44710540116345E-18   0.00000000000000E+00   0.00000000000000E+00   0.00000000000000E+00   0.00000000000000E+00
     -2.78277541530743E-19  -1.00593776609964E-33  -2.78277541530744E-19  -1.48697327684997E-17   7.98772691297934E-03
      7.98772679264068E-03   0.00000000000000E+00   0.00000000000000E+00   6.01365460104707E-10   4.32999398204094E-34
      6.01365460104707E-10   4.84790480460007E-18
      1.11555174190848E-02
      0.00000000000000E+00   1.36543596550973E-10   0.00000000000000E+00   0.00000000000000E+00  -6.85037394134499E-10
      5.51294265461211E-34  -6.85037394134499E-10   5.57419817040713E-18   0.00000000000000E+00   0.00000000000000E+00
      0.00000000000000E+00   0.00000000000000E+00   0.00000000000000E+00   0.00000000000000E+00   0.00000000000000E+00
      4.42632449550899E-18   0.00000000000000E+00   0.00000000000000E+00   0.00000000000000E+00   0.00000000000000E+00
      2.07961092694918E-19  -9.42822096872225E-34   2.07961092694917E-19  -1.48689825769937E-17   9.59374498041296E-03
      9.59374484332009E-03   0.00000000000000E+00   0.00000000000000E+00   6.85037393926538E-10   3.91527831411014E-34
      6.85037393926538E-10   4.86845991107756E-18
      1.31972768226439E-02
      0.00000000000000E+00   1.52557383213615E-10   0.00000000000000E+00   0.00000000000000E+00  -7.65314218732282E-10
      5.70047770049055E-34  -7.65314218732282E-10   5.57362498584679E-18   0.00000000000000E+00   0.00000000000000E+00
      0.00000000000000E+00   0.00000000000000E+00   0.00000000000000E+00   0.00000000000000E+00   0.00000000000000E+00
      4.40361190565225E-18   0.00000000000000E+00   0.00000000000000E+00   0.00000000000000E+00   0.00000000000000E+00
      8.49694871360620E-20  -9.64930008584860E-34   8.49694871360610E-20  -1.48681837157536E-17   1.13496580674737E-02
      1.13496579143036E-02   0.00000000000000E+00   0.00000000000000E+00   7.65314218647313E-10   3.94882238535806E-34
      7.65314218647313E-10   4.89094682425455E-18
      1.54296004372017E-02
      0.00000000000000E+00   1.67698355521225E-10   0.00000000000000E+00   0.00000000000000E+00  -8.41202858458836E-10
      5.69461369112700E-34  -8.41202858458836E-10   5.57299847842063E-18   0.00000000000000E+00   0.00000000000000E+00
      0.00000000000000E+00   0.00000000000000E+00   0.00000000000000E+00   0.00000000000000E+00   0.00000000000000E+00
      4.37878861826503E-18   0.00000000000000E+00   0.00000000000000E+00   0.00000000000000E+00   0.00000000000000E+00
     -4.39377052713866E-20  -9.33262627584427E-34  -4.39377052713875E-20  -1.48673352700132E-17   1.32694563759935E-02
      1.32694562076225E-02   0.00000000000000E+00   0.00000000000000E+00   8.41202858502774E-10   3.63801258471727E-34
      8.41202858502774E-10   4.91554817332758E-18
      1.78702742557850E-02
      0.00000000000000E+00   1.81779016100326E-10   0.00000000000000E+00   0.00000000000000E+00  -9.11768523546133E-10
      5.58099503809120E-34  -9.11768523546133E-10   5.57231369747929E-18   0.00000000000000E+00   0.00000000000000E+00
      0.00000000000000E+00   0.00000000000000E+00   0.00000000000000E+00   0.00000000000000E+00   0.00000000000000E+00
      4.35165909155061E-18   0.00000000000000E+00   0.00000000000000E+00   0.00000000000000E+00   0.00000000000000E+00
     -6.67012916077651E-20  -8.91664143161453E-34  -6.67012916077660E-20  -1.48664367988962E-17   1.53684358599751E-02
      1.53684356774678E-02   0.00000000000000E+00   0.00000000000000E+00   9.11768523612834E-10   3.33564639352333E-34
      9.11768523612834E-10   4.94246400986631E-18
      2.05387442974361E-02
      0.00000000000000E+00   1.94633445401190E-10   0.00000000000000E+00   0.00000000000000E+00  -9.76186449526836E-10
      5.59987083787519E-34  -9.76186449526836E-10   5.57156523331204E-18   0.00000000000000E+00   0.00000000000000E+00
      0.00000000000000E+00   0.00000000000000E+00   0.00000000000000E+00   0.00000000000000E+00   0.00000000000000E+00
      4.32200973087630E-18   0.00000000000000E+00   0.00000000000000E+00   0.00000000000000E+00   0.00000000000000E+00
     -1.26640270307928E-19  -8.73008231938580E-34  -1.26640270307929E-19  -1.48654884511413E-17   1.76633200957950E-02
      1.76633199003824E-02   0.00000000000000E+00   0.00000000000000E+00   9.76186449653476E-10   3.13021148151060E-34
      9.76186449653476E-10   4.97191348695292E-18
      2.34562715429746E-02
      0.00000000000000E+00   2.06129295157502E-10   0.00000000000000E+00   0.00000000000000E+00  -1.03380267560978E-09
      5.66189632852473E-34  -1.03380267560978E-09   5.57074717438012E-18   0.00000000000000E+00   0.00000000000000E+00
      0.00000000000000E+00   0.00000000000000E+00   0.00000000000000E+00   0.00000000000000E+00   0.00000000000000E+00
      4.28960721957221E-18   0.00000000000000E+00   0.00000000000000E+00   0.00000000000000E+00   0.00000000000000E+00
     -2.04146041415331E-19  -8.44247489823738E-34  -2.04146041415332E-19  -1.48644910935633E-17   2.01723935269581E-02
      2.01723933200043E-02   0.00000000000000E+00   0.00000000000000E+00   1.03380267581392E-09   2.78057856971264E-34
      1.03380267581392E-09   5.00413669961099E-18
      2.66461013314300E-02
      0.00000000000000E+00   2.16180220750076E-10   0.00000000000000E+00   0.00000000000000E+00  -1.08419596817716E-09
      5.42942382522427E-34  -1.08419596817716E-09   5.56985306050170E-18   0.00000000000000E+00   0.00000000000000E+00
      0.00000000000000E+00   0.00000000000000E+00   0.00000000000000E+00   0.00000000000000E+00   0.00000000000000E+00
      4.25419669351136E-18   0.00000000000000E+00   0.00000000000000E+00   0.00000000000000E+00   0.00000000000000E+00
     -3.25115227306520E-20  -7.89275660972630E-34  -3.25115227306528E-20  -1.48634464560566E-17   2.29156471450298E-02
      2.29156469279852E-02   0.00000000000000E+00   0.00000000000000E+00   1.08419596820967E-09   2.46333278450203E-34
      1.08419596820967E-09   5.03939670204347E-18
      3.01336485668079E-02
      0.00000000000000E+00   2.24758017716738E-10   0.00000000000000E+00   0.00000000000000E+00  -1.12723865117180E-09
      5.22854597987249E-34  -1.12723865117180E-09   5.56887583158592E-18   0.00000000000000E+00   0.00000000000000E+00
      0.00000000000000E+00   0.00000000000000E+00   0.00000000000000E+00   0.00000000000000E+00   0.00000000000000E+00
      4.21549974300770E-18   0.00000000000000E+00   0.00000000000000E+00   0.00000000000000E+00   0.00000000000000E+00
     -2.13512858278223E-19  -7.49103523627728E-34  -2.13512858278224E-19  -1.48623572923586E-17   2.59149377674548E-02
      2.59149375417986E-02   0.00000000000000E+00   0.00000000000000E+00   1.12723865138531E-09   2.26248925640478E-34
      1.12723865138531E-09   5.07798171776502E-18
      3.39467002108211E-02
      0.00000000000000E+00   2.31903449677888E-10   0.00000000000000E+00   0.00000000000000E+00  -1.16315030659372E-09
      5.41840697495745E-34  -1.16315030659372E-09   5.56780777146841E-18   0.00000000000000E+00   0.00000000000000E+00
      0.00000000000000E+00   0.00000000000000E+00   0.00000000000000E+00   0.00000000000000E+00   0.00000000000000E+00
      4.17321222257741E-18   0.00000000000000E+00   0.00000000000000E+00   0.00000000000000E+00   0.00000000000000E+00
     -4.77038391869382E-19  -7.45976580641954E-34  -4.77038391869383E-19  -1.48612275531711E-17   2.91941621813061E-02
      2.91941619484767E-02   0.00000000000000E+00   0.00000000000000E+00   1.16315030707076E-09   2.04135883146210E-34
      1.16315030707076E-09   5.12020755912530E-18
      3.81156366749421E-02
      0.00000000000000E+00   2.37733105805950E-10   0.00000000000000E+00   0.00000000000000E+00  -1.19253125748195E-09
      5.43743269785397E-34  -1.19253125748195E-09   5.56664044645452E-18   0.00000000000000E+00   0.00000000000000E+00
      0.00000000000000E+00   0.00000000000000E+00   0.00000000000000E+00   0.00000000000000E+00   0.00000000000000E+00
      4.12700185169942E-18   0.00000000000000E+00   0.00000000000000E+00   0.00000000000000E+00   0.00000000000000E+00
     -7.44677431884373E-19  -7.24948347263156E-34  -7.44677431884374E-19  -1.48600625737418E-17   3.27794475404502E-02
      3.27794473017694E-02   0.00000000000000E+00   0.00000000000000E+00   1.19253125822663E-09   1.81205077477759E-34
      1.19253125822663E-09   5.16642027558785E-18
      4.26736738757145E-02
      0.00000000000000E+00   2.42439549565080E-10   0.00000000000000E+00   0.00000000000000E+00  -1.21636194147214E-09
      5.48067470068675E-34  -1.21636194147214E-09   5.56536463806354E-18   0.00000000000000E+00   0.00000000000000E+00
      0.00000000000000E+00   0.00000000000000E+00   0.00000000000000E+00   0.00000000000000E+00   0.00000000000000E+00
      4.07650558166562E-18   0.00000000000000E+00   0.00000000000000E+00   0.00000000000000E+00   0.00000000000000E+00
     -1.01257308651088E-18  -7.13426347023896E-34  -1.01257308651088E-18  -1.48588692682346E-17   3.66993595331145E-02
      3.66993592897116E-02   0.00000000000000E+00   0.00000000000000E+00   1.21636194248471E-09   1.65358876955222E-34
      1.21636194248471E-09   5.21699904850548E-18
      4.76571278818923E-02
      0.00000000000000E+00   2.46280747625752E-10   0.00000000000000E+00   0.00000000000000E+00  -1.23594753487734E-09
      5.36779828512181E-34  -1.23594753487734E-09   5.56397026963446E-18   0.00000000000000E+00   0.00000000000000E+00
      0.00000000000000E+00   0.00000000000000E+00   0.00000000000000E+00   0.00000000000000E+00   0.00000000000000E+00
      4.02132671057642E-18   0.00000000000000E+00   0.00000000000000E+00   0.00000000000000E+00   0.00000000000000E+00
     -2.47905925940698E-18  -6.79643550096735E-34  -2.47905925940699E-18  -1.48576563355924E-17   4.09851299784274E-02
      4.09851297311741E-02   0.00000000000000E+00   0.00000000000000E+00   1.23594753735640E-09   1.42863721584554E-34
      1.23594753735640E-09   5.27235935538146E-18
      5.31057042619801E-02
      0.00000000000000E+00   2.49556873785503E-10   0.00000000000000E+00   0.00000000000000E+00  -1.25280052332311E-09
      5.23575059117882E-34  -1.25280052332311E-09   5.56244632632632E-18   0.00000000000000E+00   0.00000000000000E+00
      0.00000000000000E+00   0.00000000000000E+00   0.00000000000000E+00   0.00000000000000E+00   0.00000000000000E+00
      3.96103172384885E-18   0.00000000000000E+00   0.00000000000000E+00   0.00000000000000E+00   0.00000000000000E+00
     -3.66108183667930E-18  -6.45644522511259E-34  -3.66108183667930E-18  -1.48564344751571E-17   4.56709056653029E-02
      4.56709054147707E-02   0.00000000000000E+00   0.00000000000000E+00   1.25280052698420E-09   1.22069463393377E-34
      1.25280052698420E-09   5.33295642498192E-18
      5.90628144375427E-02
      0.00000000000000E+00   2.52577235110119E-10   0.00000000000000E+00   0.00000000000000E+00  -1.26847542319654E-09
      5.47081206817657E-34  -1.26847542319654E-09   5.56078076812131E-18   0.00000000000000E+00   0.00000000000000E+00
      0.00000000000000E+00   0.00000000000000E+00   0.00000000000000E+00   0.00000000000000E+00   0.00000000000000E+00
      3.89514683388758E-18   0.00000000000000E+00   0.00000000000000E+00   0.00000000000000E+00   0.00000000000000E+00
     -3.42130679296646E-18  -6.40116191300515E-34  -3.42130679296646E-18  -1.48552166066290E-17   5.07940204162867E-02
      5.07940201627387E-02   0.00000000000000E+00   0.00000000000000E+00   1.26847542661785E-09   9.30349844828574E-35
      1.26847542661785E-09   5.39928900462010E-18
      6.55759215628244E-02
      0.00000000000000E+00   2.55617491792942E-10   0.00000000000000E+00   0.00000000000000E+00  -1.28435411422297E-09
      5.81636014319788E-34  -1.28435411422297E-09   5.55896043574424E-18   0.00000000000000E+00   0.00000000000000E+00
      0.00000000000000E+00   0.00000000000000E+00   0.00000000000000E+00   0.00000000000000E+00   0.00000000000000E+00
      3.82315421349518E-18   0.00000000000000E+00   0.00000000000000E+00   0.00000000000000E+00   0.00000000000000E+00
     -1.09271050157167E-19  -6.61197447067513E-34  -1.09271050157167E-19  -1.48540181189923E-17   5.63952925440290E-02
      5.63952922874531E-02   0.00000000000000E+00   0.00000000000000E+00   1.28435411433224E-09   7.95614327477250E-35
      1.28435411433224E-09   5.47190346975291E-18
      7.26534979722973E-02
      0.00000000000000E+00   2.58855051290919E-10   0.00000000000000E+00   0.00000000000000E+00  -1.30131386563095E-09
      5.37110525255176E-34  -1.30131386563095E-09   5.55698307703057E-18   0.00000000000000E+00   0.00000000000000E+00
      0.00000000000000E+00   0.00000000000000E+00   0.00000000000000E+00   0.00000000000000E+00   0.00000000000000E+00
      3.74496742115948E-18   0.00000000000000E+00   0.00000000000000E+00   0.00000000000000E+00   0.00000000000000E+00
     -2.46654073257427E-19  -6.01234697325548E-34  -2.46654073257427E-19  -1.48528637577076E-17   6.24820082561757E-02
      6.24820079963823E-02   0.00000000000000E+00   0.00000000000000E+00   1.30131386587760E-09   6.41241720703717E-35
      1.30131386587760E-09   5.55091325951751E-18
      8.03444643372578E-02
      0.00000000000000E+00   2.62397005380419E-10   0.00000000000000E+00   0.00000000000000E+00  -1.31988577132652E-09
      5.33459227180958E-34  -1.31988577132652E-09   5.55483514421891E-18   0.00000000000000E+00   0.00000000000000E+00
      0.00000000000000E+00   0.00000000000000E+00   0.00000000000000E+00   0.00000000000000E+00   0.00000000000000E+00
      3.66005325926323E-18   0.00000000000000E+00   0.00000000000000E+00   0.00000000000000E+00   0.00000000000000E+00
     -3.78655742493808E-19  -5.84310490846180E-34  -3.78655742493808E-19  -1.48517728412038E-17   6.90962393300417E-02
      6.90962390667346E-02   0.00000000000000E+00   0.00000000000000E+00   1.31988577170517E-09   5.08512636652221E-35
      1.31988577170517E-09   5.63688443772171E-18
      8.87019811205149E-02
      0.00000000000000E+00   2.66303057204553E-10   0.00000000000000E+00   0.00000000000000E+00  -1.34037795064782E-09
      5.63812672538106E-34  -1.34037795064782E-09   5.55250192015092E-18   0.00000000000000E+00   0.00000000000000E+00
      0.00000000000000E+00   0.00000000000000E+00   0.00000000000000E+00   0.00000000000000E+00   0.00000000000000E+00
      3.56783240594623E-18   0.00000000000000E+00   0.00000000000000E+00   0.00000000000000E+00   0.00000000000000E+00
      2.80709495036169E-20  -6.04523735794119E-34   2.80709495036163E-20  -1.48507672727066E-17   7.62837037636428E-02
      7.62837034964677E-02   0.00000000000000E+00   0.00000000000000E+00   1.34037795061974E-09   4.07110632560125E-35
      1.34037795061974E-09   5.73043294660946E-18
      9.77838160249876E-02
      0.00000000000000E+00   2.70605002923672E-10   0.00000000000000E+00   0.00000000000000E+00  -1.36295924383445E-09
      5.51675147426993E-34  -1.36295924383445E-09   5.54996742005269E-18   0.00000000000000E+00   0.00000000000000E+00
      0.00000000000000E+00   0.00000000000000E+00   0.00000000000000E+00   0.00000000000000E+00   0.00000000000000E+00
      3.46767545743706E-18   0.00000000000000E+00   0.00000000000000E+00   0.00000000000000E+00   0.00000000000000E+00
      4.94528128364022E-20  -5.81947811029314E-34   4.94528128364016E-20  -1.48498717515211E-17   8.40940817814893E-02
      8.40940815100576E-02   0.00000000000000E+00   0.00000000000000E+00   1.36295924378500E-09   3.02726636023217E-35
      1.36295924378500E-09   5.83222887403132E-18
      1.07652743287848E-01
      0.00000000000000E+00   2.75313698098042E-10   0.00000000000000E+00   0.00000000000000E+00  -1.38769498470534E-09
      5.39109392033627E-34  -1.38769498470534E-09   5.54721428178592E-18   0.00000000000000E+00   0.00000000000000E+00
      0.00000000000000E+00   0.00000000000000E+00   0.00000000000000E+00   0.00000000000000E+00   0.00000000000000E+00
      3.35889858286202E-18   0.00000000000000E+00   0.00000000000000E+00   0.00000000000000E+00   0.00000000000000E+00
      6.43078156042472E-20  -5.63110953312603E-34   6.43078156042467E-20  -1.48491139171260E-17   9.25813592275492E-02
      9.25813589514594E-02   0.00000000000000E+00   0.00000000000000E+00   1.38769498464104E-09   2.40015612789763E-35
      1.38769498464104E-09   5.94300105247805E-18
      1.17652743287848E-01
      0.00000000000000E+00   2.80105974421627E-10   0.00000000000000E+00   0.00000000000000E+00  -1.41289917187525E-09
      5.70818248935251E-34  -1.41289917187525E-09   5.54442557083282E-18   0.00000000000000E+00   0.00000000000000E+00
      0.00000000000000E+00   0.00000000000000E+00   0.00000000000000E+00   0.00000000000000E+00   0.00000000000000E+00
      3.24873496838839E-18   0.00000000000000E+00   0.00000000000000E+00   0.00000000000000E+00   0.00000000000000E+00
      1.07840280572714E-20  -5.87796330432175E-34   1.07840280572708E-20  -1.48485568634832E-17   1.01181359227549E-01
      1.01181358946724E-01   0.00000000000000E+00   0.00000000000000E+00   1.41289917186446E-09   1.69780814969237E-35
      1.41289917186446E-09   6.05539632426204E-18
      1.27652743287848E-01
      0.00000000000000E+00   2.84925796851306E-10   0.00000000000000E+00   0.00000000000000E+00  -1.43828053877396E-09
      5.53828057790353E-34  -1.43828053877396E-09   5.54163777433544E-18   0.00000000000000E+00   0.00000000000000E+00
      0.00000000000000E+00   0.00000000000000E+00   0.00000000000000E+00   0.00000000000000E+00   0.00000000000000E+00
      3.13862407247005E-18   0.00000000000000E+00   0.00000000000000E+00   0.00000000000000E+00   0.00000000000000E+00
     -4.16152248488996E-20  -5.66891039994276E-34  -4.16152248489001E-20  -1.48481952227434E-17   1.09781359227549E-01
      1.09781358941971E-01   0.00000000000000E+00   0.00000000000000E+00   1.43828053881557E-09   1.30629822039229E-35
      1.43828053881557E-09   6.16793337593788E-18
      1.37652743287848E-01
      0.00000000000000E+00   2.89783264244247E-10   0.00000000000000E+00   0.00000000000000E+00  -1.46389013381360E-09
      5.44244596359472E-34  -1.46389013381360E-09   5.53885081905690E-18   0.00000000000000E+00   0.00000000000000E+00
      0.00000000000000E+00   0.00000000000000E+00   0.00000000000000E+00   0.00000000000000E+00   0.00000000000000E+00
      3.02856098069943E-18   0.00000000000000E+00   0.00000000000000E+00   0.00000000000000E+00   0.00000000000000E+00
      6.78588591410943E-20  -5.53762409406380E-34   6.78588591410937E-20  -1.48480137786655E-17   1.18381359227549E-01
      1.18381358937186E-01   0.00000000000000E+00   0.00000000000000E+00   1.46389013374574E-09   9.51781304690818E-36
      1.46389013374574E-09   6.28060197890912E-18
      1.47652743287848E-01
      0.00000000000000E+00   2.94685238133825E-10   0.00000000000000E+00   0.00000000000000E+00  -1.48976172508508E-09
      5.51383542583089E-34  -1.48976172508508E-09   5.53606464289408E-18   0.00000000000000E+00   0.00000000000000E+00
      0.00000000000000E+00   0.00000000000000E+00   0.00000000000000E+00   0.00000000000000E+00   0.00000000000000E+00
      2.91854143933473E-18   0.00000000000000E+00   0.00000000000000E+00   0.00000000000000E+00   0.00000000000000E+00
      2.82400431578556E-19  -5.58496389617705E-34   2.82400431578555E-19  -1.48479988343618E-17   1.26981359227549E-01
      1.26981358932352E-01   0.00000000000000E+00   0.00000000000000E+00   1.48976172480268E-09   7.11284703461625E-36
      1.48976172480268E-09   6.39339275213291E-18
      1.57652743287848E-01
      0.00000000000000E+00   2.99635045250212E-10   0.00000000000000E+00   0.00000000000000E+00  -1.51591144357682E-09
      5.56507945268503E-34  -1.51591144357682E-09   5.53327919052988E-18   0.00000000000000E+00   0.00000000000000E+00
      0.00000000000000E+00   0.00000000000000E+00   0.00000000000000E+00   0.00000000000000E+00   0.00000000000000E+00
      2.80856171080771E-18   0.00000000000000E+00   0.00000000000000E+00   0.00000000000000E+00   0.00000000000000E+00
      5.40310899416460E-20  -5.61722408752318E-34   5.40310899416454E-20  -1.48481379727261E-17   1.35581359227549E-01
      1.35581358927465E-01   0.00000000000000E+00   0.00000000000000E+00   1.51591144352279E-09   5.21446348381438E-36
      1.51591144352279E-09   6.50629707138852E-18
      1.67652743287848E-01
      0.00000000000000E+00   3.04633694259946E-10   0.00000000000000E+00   0.00000000000000E+00  -1.54234390954079E-09
      5.51568326987718E-34  -1.54234390954079E-09   5.53049441138305E-18   0.00000000000000E+00   0.00000000000000E+00
      0.00000000000000E+00   0.00000000000000E+00   0.00000000000000E+00   0.00000000000000E+00   0.00000000000000E+00
      2.69861846855171E-18   0.00000000000000E+00   0.00000000000000E+00   0.00000000000000E+00   0.00000000000000E+00
      2.55073968335577E-19  -5.55557307967053E-34   2.55073968335576E-19  -1.48484198734660E-17   1.44181359227549E-01
      1.44181358922526E-01   0.00000000000000E+00   0.00000000000000E+00   1.54234390928572E-09   3.98898097933464E-36
      1.54234390928572E-09   6.61930699353124E-18
      1.77652743287848E-01
      0.00000000000000E+00   3.09681042925603E-10   0.00000000000000E+00   0.00000000000000E+00  -1.56905800639364E-09
      5.50341643953597E-34  -1.56905800639364E-09   5.52771025900302E-18   0.00000000000000E+00   0.00000000000000E+00
      0.00000000000000E+00   0.00000000000000E+00   0.00000000000000E+00   0.00000000000000E+00   0.00000000000000E+00
      2.58870873494772E-18   0.00000000000000E+00   0.00000000000000E+00   0.00000000000000E+00   0.00000000000000E+00
      2.58763155105695E-19  -5.53394397773163E-34   2.58763155105695E-19  -1.48488341862063E-17   1.52781359227549E-01
      1.52781358917537E-01   0.00000000000000E+00   0.00000000000000E+00   1.56905800613488E-09   3.05275381956601E-36
      1.56905800613488E-09   6.73241519225555E-18
      1.87652743287848E-01
      0.00000000000000E+00   3.14776478407078E-10   0.00000000000000E+00   0.00000000000000E+00  -1.59605083380579E-09