DF-ISE text

Info {
  version   = 1.0
  type      = xyplot
  datasets  = [
    "time"
    "source OuterVoltage" "source InnerVoltage" "source QuasiFermiPotential" "source DisplacementCurrent" "source eCurrent"
    "source hCurrent" "source TotalCurrent" "source Charge" "gate OuterVoltage" "gate InnerVoltage"
    "gate QuasiFermiPotential" "gate DisplacementCurrent" "gate eCurrent" "gate hCurrent" "gate TotalCurrent"
    "gate Charge" "substrate OuterVoltage" "substrate InnerVoltage" "substrate QuasiFermiPotential" "substrate DisplacementCurrent"
    "substrate eCurrent" "substrate hCurrent" "substrate TotalCurrent" "substrate Charge" "drain OuterVoltage"
    "drain InnerVoltage" "drain QuasiFermiPotential" "drain DisplacementCurrent" "drain eCurrent" "drain hCurrent"
    "drain TotalCurrent" "drain Charge" ]
  functions = [
    Time
    OuterVoltage InnerVoltage QuasiFermiPotential DisplacementCurrent eCurrent
    hCurrent TotalCurrent Charge OuterVoltage InnerVoltage
    QuasiFermiPotential DisplacementCurrent eCurrent hCurrent TotalCurrent
    Charge OuterVoltage InnerVoltage QuasiFermiPotential DisplacementCurrent
    eCurrent hCurrent TotalCurrent Charge OuterVoltage
    InnerVoltage QuasiFermiPotential DisplacementCurrent eCurrent hCurrent
    TotalCurrent Charge ]
}

Data {
      0.00000000000000E+00
      0.00000000000000E+00   0.00000000000000E+00   0.00000000000000E+00   0.00000000000000E+00  -8.15366185163109E-22
      7.18581025904761E-34  -8.15366185162390E-22   5.25272013885368E-18   0.00000000000000E+00   0.00000000000000E+00
      0.00000000000000E+00   0.00000000000000E+00   0.00000000000000E+00   0.00000000000000E+00   0.00000000000000E+00
      3.59602711872567E-18   0.00000000000000E+00   0.00000000000000E+00   0.00000000000000E+00   0.00000000000000E+00
      2.68039669542986E-22  -1.42766425611655E-33   2.68039669541558E-22  -1.32739713923513E-17   0.00000000000000E+00
      0.00000000000000E+00   0.00000000000000E+00   0.00000000000000E+00   5.47326515620123E-22   7.09083230211789E-34
      5.47326515620832E-22   4.42522413477189E-18
      0.00000000000000E+00
      0.00000000000000E+00   0.00000000000000E+00   0.00000000000000E+00   0.00000000000000E+00  -1.85325768172726E-20
      7.08270938542231E-34  -1.85325768172719E-20   5.25058450726415E-18   0.00000000000000E+00   0.00000000000000E+00
      0.00000000000000E+00   0.00000000000000E+00   0.00000000000000E+00   0.00000000000000E+00   0.00000000000000E+00
      3.58960174965546E-18   0.00000000000000E+00   0.00000000000000E+00   0.00000000000000E+00   0.00000000000000E+00
      1.39171401368363E-20  -1.41221645549028E-33   1.39171401368349E-20  -1.32638777518943E-17   0.00000000000000E+00
      0.00000000000000E+00   0.00000000000000E+00   0.00000000000000E+00   4.61543668043633E-21   7.03945516948048E-34
      4.61543668043703E-21   4.42369149497474E-18
      1.00000000000000E-03
      0.00000000000000E+00   1.38347449744520E-12   0.00000000000000E+00   0.00000000000000E+00  -7.04028065550600E-12
      6.79953675669203E-34  -7.04028065550600E-12   5.25056227737729E-18   0.00000000000000E+00   0.00000000000000E+00
      0.00000000000000E+00   0.00000000000000E+00   0.00000000000000E+00   0.00000000000000E+00   0.00000000000000E+00
      3.58899990359106E-18   0.00000000000000E+00   0.00000000000000E+00   0.00000000000000E+00   0.00000000000000E+00
     -1.05412179454092E-19  -1.38907114870464E-33  -1.05412179454094E-19  -1.32638590545686E-17   5.00000000000000E-05
      4.99999986006068E-05   0.00000000000000E+00   0.00000000000000E+00   7.04028076091818E-12   7.09117473035438E-34
      7.04028076091818E-12   4.42429687360027E-18
      2.09333333333333E-03
      0.00000000000000E+00   2.89145929693654E-12   0.00000000000000E+00   0.00000000000000E+00  -1.47141924841430E-11
      6.83037747447446E-34  -1.47141924841430E-11   5.25053797295430E-18   0.00000000000000E+00   0.00000000000000E+00
      0.00000000000000E+00   0.00000000000000E+00   0.00000000000000E+00   0.00000000000000E+00   0.00000000000000E+00
      3.58834189372384E-18   0.00000000000000E+00   0.00000000000000E+00   0.00000000000000E+00   0.00000000000000E+00
      2.45323830338219E-20  -1.32792866108924E-33   2.45323830338206E-20  -1.32638386331424E-17   1.04666666666667E-04
      1.04666663741938E-04   0.00000000000000E+00   0.00000000000000E+00   1.47141924596106E-11   6.44890913641794E-34
      1.47141924596106E-11   4.42495876646425E-18
      3.29600000000000E-03
      0.00000000000000E+00   4.54447349681694E-12   0.00000000000000E+00   0.00000000000000E+00  -2.31261098251444E-11
      6.90864408876534E-34  -2.31261098251444E-11   5.25051123839584E-18   0.00000000000000E+00   0.00000000000000E+00
      0.00000000000000E+00   0.00000000000000E+00   0.00000000000000E+00   0.00000000000000E+00   0.00000000000000E+00
      3.58761809311209E-18   0.00000000000000E+00   0.00000000000000E+00   0.00000000000000E+00   0.00000000000000E+00
     -1.18284162586000E-20  -1.36707685273561E-33  -1.18284162586014E-20  -1.32638161948708E-17   1.64800000000000E-04
      1.64799995403223E-04   0.00000000000000E+00   0.00000000000000E+00   2.31261098369728E-11   6.76212443859071E-34
      2.31261098369728E-11   4.42568686336285E-18
      4.61893333333333E-03
      0.00000000000000E+00   6.35567385569137E-12   0.00000000000000E+00   0.00000000000000E+00  -3.23429234969220E-11
      6.76247811637694E-34  -3.23429234969220E-11   5.25048183075361E-18   0.00000000000000E+00   0.00000000000000E+00
      0.00000000000000E+00   0.00000000000000E+00   0.00000000000000E+00   0.00000000000000E+00   0.00000000000000E+00
      3.58682192482030E-18   0.00000000000000E+00   0.00000000000000E+00   0.00000000000000E+00   0.00000000000000E+00
     -3.80729294004510E-21  -1.34961979978346E-33  -3.80729294004645E-21  -1.32637915433568E-17   2.30946666666667E-04
      2.30946660237862E-04   0.00000000000000E+00   0.00000000000000E+00   3.23429235007293E-11   6.73371988145769E-34
      3.23429235007293E-11   4.42648778778286E-18
      6.07416000000000E-03
      0.00000000000000E+00   8.33922742427410E-12   0.00000000000000E+00   0.00000000000000E+00  -4.24368744732415E-11
      7.05829570861181E-34  -4.24368744732415E-11   5.25044948279788E-18   0.00000000000000E+00   0.00000000000000E+00
      0.00000000000000E+00   0.00000000000000E+00   0.00000000000000E+00   0.00000000000000E+00   0.00000000000000E+00
      3.58594615466447E-18   0.00000000000000E+00   0.00000000000000E+00   0.00000000000000E+00   0.00000000000000E+00
      1.47086170226279E-20  -1.40029568913870E-33   1.47086170226265E-20  -1.32637644636658E-17   3.03708000000000E-04
      3.03707991564810E-04   0.00000000000000E+00   0.00000000000000E+00   4.24368744585329E-11   6.94466118277515E-34
      4.24368744585329E-11   4.42736882620342E-18
      7.67490933333333E-03
      0.00000000000000E+00   1.05104542327483E-11   0.00000000000000E+00   0.00000000000000E+00  -5.34857547256564E-11
      6.92718606026559E-34  -5.34857547256564E-11   5.25041390059230E-18   0.00000000000000E+00   0.00000000000000E+00
      0.00000000000000E+00   0.00000000000000E+00   0.00000000000000E+00   0.00000000000000E+00   0.00000000000000E+00
      3.58498282557942E-18   0.00000000000000E+00   0.00000000000000E+00   0.00000000000000E+00   0.00000000000000E+00
      3.40026281778779E-21  -1.38645491614082E-33   3.40026281778640E-21  -1.32637347207006E-17   3.83745466666667E-04
      3.83745456035271E-04   0.00000000000000E+00   0.00000000000000E+00   5.34857547222561E-11   6.93736310114264E-34
      5.34857547222561E-11   4.42833799452891E-18
      9.43573360000000E-03
      0.00000000000000E+00   1.28857715278897E-11   0.00000000000000E+00   0.00000000000000E+00  -6.55730944067480E-11
      7.34284345543313E-34  -6.55730944067480E-11   5.25037476082667E-18   0.00000000000000E+00   0.00000000000000E+00
      0.00000000000000E+00   0.00000000000000E+00   0.00000000000000E+00   0.00000000000000E+00   0.00000000000000E+00
      3.58392318544180E-18   0.00000000000000E+00   0.00000000000000E+00   0.00000000000000E+00   0.00000000000000E+00
      5.22694239874735E-20  -1.41188671773882E-33   5.22694239874721E-20  -1.32637020574614E-17   4.71786680000000E-04
      4.71786666965966E-04   0.00000000000000E+00   0.00000000000000E+00   6.55730943544786E-11   6.77602372195506E-34
      6.55730943544786E-11   4.42940411119291E-18
      1.13726402933333E-02
      0.00000000000000E+00   1.54827536361546E-11   0.00000000000000E+00   0.00000000000000E+00  -7.87883074757585E-11
      7.08826963837977E-34  -7.87883074757585E-11   5.25033170788368E-18   0.00000000000000E+00   0.00000000000000E+00
      0.00000000000000E+00   0.00000000000000E+00   0.00000000000000E+00   0.00000000000000E+00   0.00000000000000E+00
      3.58275760769813E-18   0.00000000000000E+00   0.00000000000000E+00   0.00000000000000E+00   0.00000000000000E+00
      3.81672802862158E-20  -1.37620937083855E-33   3.81672802862144E-20  -1.32636661931878E-17   5.68632014666667E-04
      5.68631999005797E-04   0.00000000000000E+00   0.00000000000000E+00   7.87883074375913E-11   6.67382407000578E-34
      7.87883074375913E-11   4.43057687760593E-18
      1.35032376560000E-02
      0.00000000000000E+00   1.83201393440602E-11   0.00000000000000E+00   0.00000000000000E+00  -9.32267743781077E-11
      6.99187158500384E-34  -9.32267743781077E-11   5.25028435061302E-18   0.00000000000000E+00   0.00000000000000E+00
      0.00000000000000E+00   0.00000000000000E+00   0.00000000000000E+00   0.00000000000000E+00   0.00000000000000E+00
      3.58147550408293E-18   0.00000000000000E+00   0.00000000000000E+00   0.00000000000000E+00   0.00000000000000E+00
      7.15952243958699E-20  -1.36602421523622E-33   7.15952243958685E-20  -1.32636268213840E-17   6.75161882800000E-04
      6.75161864269119E-04   0.00000000000000E+00   0.00000000000000E+00   9.32267743065126E-11   6.66837056735836E-34
      9.32267743065126E-11   4.43186696668803E-18
      1.58468947549333E-02
      0.00000000000000E+00   2.14178548593691E-11   0.00000000000000E+00   0.00000000000000E+00  -1.08989839698001E-10
      7.34764925381546E-34  -1.08989839698001E-10   5.25023225878420E-18   0.00000000000000E+00   0.00000000000000E+00
      0.00000000000000E+00   0.00000000000000E+00   0.00000000000000E+00   0.00000000000000E+00   0.00000000000000E+00
      3.58006522864160E-18   0.00000000000000E+00   0.00000000000000E+00   0.00000000000000E+00   0.00000000000000E+00
      1.11276353172227E-19  -1.38292327134347E-33   1.11276353172225E-19  -1.32635836077287E-17   7.92344737746667E-04
      7.92344716082455E-04   0.00000000000000E+00   0.00000000000000E+00   1.08989839586725E-10   6.48158345961926E-34
      1.08989839586725E-10   4.43328612030289E-18
      1.84249175637600E-02
      0.00000000000000E+00   2.47969924899894E-11   0.00000000000000E+00   0.00000000000000E+00  -1.26184699331059E-10
      6.82767758954584E-34  -1.26184699331059E-10   5.25017495918556E-18   0.00000000000000E+00   0.00000000000000E+00
      0.00000000000000E+00   0.00000000000000E+00   0.00000000000000E+00   0.00000000000000E+00   0.00000000000000E+00
      3.57851397219462E-18   0.00000000000000E+00   0.00000000000000E+00   0.00000000000000E+00   0.00000000000000E+00
      1.83506387979416E-19  -1.33402818493245E-33   1.83506387979415E-19  -1.32635361878737E-17   9.21245878188001E-04
      9.21245853105812E-04   0.00000000000000E+00   0.00000000000000E+00   1.26184699147553E-10   6.51260425977862E-34
      1.26184699147553E-10   4.43484725649355E-18
      2.12607426534693E-02
      0.00000000000000E+00   2.84797286397452E-11   0.00000000000000E+00   0.00000000000000E+00  -1.44924146511130E-10
      6.97339498102153E-34  -1.44924146511130E-10   5.25011193133484E-18   0.00000000000000E+00   0.00000000000000E+00
      0.00000000000000E+00   0.00000000000000E+00   0.00000000000000E+00   0.00000000000000E+00   0.00000000000000E+00
      3.57680764629621E-18   0.00000000000000E+00   0.00000000000000E+00   0.00000000000000E+00   0.00000000000000E+00
      2.57418169597222E-19  -1.36072116910508E-33   2.57418169597221E-19  -1.32634841651428E-17   1.06303713267347E-03
      1.06303710386622E-03   0.00000000000000E+00   0.00000000000000E+00   1.44924146253712E-10   6.63381671002931E-34
      1.44924146253712E-10   4.43656458751178E-18
      2.43801502521496E-02
      0.00000000000000E+00   3.24892319636395E-11   0.00000000000000E+00   0.00000000000000E+00  -1.65326142083732E-10
      7.08919898494837E-34  -1.65326142083732E-10   5.25004260276229E-18   0.00000000000000E+00   0.00000000000000E+00
      0.00000000000000E+00   0.00000000000000E+00   0.00000000000000E+00   0.00000000000000E+00   0.00000000000000E+00
      3.57493075564488E-18   0.00000000000000E+00   0.00000000000000E+00   0.00000000000000E+00   0.00000000000000E+00
      3.98880553441540E-19  -1.35179193862320E-33   3.98880553441538E-19  -1.32634271081414E-17   1.21900751260748E-03
      1.21900747974465E-03   0.00000000000000E+00   0.00000000000000E+00   1.65326141684851E-10   6.42872040128357E-34
      1.65326141684851E-10   4.43845374973424E-18
      2.78114986106979E-02
      0.00000000000000E+00   3.68496289260774E-11   0.00000000000000E+00   0.00000000000000E+00  -1.87513171265473E-10
      6.90449891425189E-34  -1.87513171265473E-10   5.24996634382461E-18   0.00000000000000E+00   0.00000000000000E+00
      0.00000000000000E+00   0.00000000000000E+00   0.00000000000000E+00   0.00000000000000E+00   0.00000000000000E+00
      3.57286625780303E-18   0.00000000000000E+00   0.00000000000000E+00   0.00000000000000E+00   0.00000000000000E+00
      5.57262264215090E-19  -1.34996637919340E-33   5.57262264215089E-19  -1.32633645482987E-17   1.39057493053490E-03
      1.39057489326157E-03   0.00000000000000E+00   0.00000000000000E+00   1.87513170708211E-10   6.59516487768212E-34
      1.87513170708211E-10   4.44053194667098E-18
      3.15859818051010E-02
      0.00000000000000E+00   4.15857110457667E-11   0.00000000000000E+00   0.00000000000000E+00  -2.11611340603933E-10
      7.06452886182434E-34  -2.11611340603933E-10   5.24988246200209E-18   0.00000000000000E+00   0.00000000000000E+00
      0.00000000000000E+00   0.00000000000000E+00   0.00000000000000E+00   0.00000000000000E+00   0.00000000000000E+00
      3.57059540896846E-18   0.00000000000000E+00   0.00000000000000E+00   0.00000000000000E+00   0.00000000000000E+00
      8.35925570541679E-19  -1.33633226968693E-33   8.35925570541678E-19  -1.32632959773667E-17   1.57929909025505E-03
      1.57929904819125E-03   0.00000000000000E+00   0.00000000000000E+00   2.11611339768008E-10   6.29879383504499E-34
      2.11611339768008E-10   4.44281810639615E-18
      3.57379133189445E-02
      0.00000000000000E+00   4.67227733473850E-11   0.00000000000000E+00   0.00000000000000E+00  -2.37749157283116E-10
      6.67608990962677E-34  -2.37749157283116E-10   5.24979019562896E-18   0.00000000000000E+00   0.00000000000000E+00
      0.00000000000000E+00   0.00000000000000E+00   0.00000000000000E+00   0.00000000000000E+00   0.00000000000000E+00
      3.56809759442112E-18   0.00000000000000E+00   0.00000000000000E+00   0.00000000000000E+00   0.00000000000000E+00
      1.25549979286464E-18  -1.29344360907025E-33   1.25549979286464E-18  -1.32632208449163E-17   1.78689566594722E-03
      1.78689561868738E-03   0.00000000000000E+00   0.00000000000000E+00   2.37749156027616E-10   6.25834618107571E-34
      2.37749156027616E-10   4.44533305486620E-18
      4.03050379841723E-02
      0.00000000000000E+00   5.22862551830541E-11   0.00000000000000E+00   0.00000000000000E+00  -2.66055937812077E-10
      6.77226288192069E-34  -2.66055937812077E-10   5.24968870700015E-18   0.00000000000000E+00   0.00000000000000E+00
      0.00000000000000E+00   0.00000000000000E+00   0.00000000000000E+00   0.00000000000000E+00   0.00000000000000E+00
      3.56535014213154E-18   0.00000000000000E+00   0.00000000000000E+00   0.00000000000000E+00   0.00000000000000E+00
      1.83962265605351E-18  -1.29459976852124E-33   1.83962265605351E-18  -1.32631385558775E-17   2.01525189920861E-03
      2.01525184632142E-03   0.00000000000000E+00   0.00000000000000E+00   2.66055935972454E-10   6.17373480329174E-34
      2.66055935972454E-10   4.44809970674583E-18
      4.53288751159228E-02
      0.00000000000000E+00   5.83013654730108E-11   0.00000000000000E+00   0.00000000000000E+00  -2.96659793101055E-10
      6.87227412428468E-34  -2.96659793101055E-10   5.24957707479258E-18   0.00000000000000E+00   0.00000000000000E+00
      0.00000000000000E+00   0.00000000000000E+00   0.00000000000000E+00   0.00000000000000E+00   0.00000000000000E+00
      3.56232811786191E-18   0.00000000000000E+00   0.00000000000000E+00   0.00000000000000E+00   0.00000000000000E+00
      2.65880116245881E-18  -1.33318812115720E-33   2.65880116245880E-18  -1.32630484681757E-17   2.26644375579614E-03
      2.26644369682478E-03   0.00000000000000E+00   0.00000000000000E+00   2.96659790442253E-10   6.45960708728733E-34
      2.96659790442253E-10   4.45114327552125E-18
      5.08550959608485E-02
      0.00000000000000E+00   6.47926111812858E-11   0.00000000000000E+00   0.00000000000000E+00  -3.29685123134878E-10
      6.74045661894382E-34  -3.29685123134878E-10   5.24945428573361E-18   0.00000000000000E+00   0.00000000000000E+00
      0.00000000000000E+00   0.00000000000000E+00   0.00000000000000E+00   0.00000000000000E+00   0.00000000000000E+00
      3.55900409993787E-18   0.00000000000000E+00   0.00000000000000E+00   0.00000000000000E+00   0.00000000000000E+00
      3.89444715304779E-18  -1.30539972964337E-33   3.89444715304779E-18  -1.32629498905433E-17   2.54275479804242E-03
      2.54275473250532E-03   0.00000000000000E+00   0.00000000000000E+00   3.29685119240431E-10   6.31354067748985E-34
      3.29685119240431E-10   4.45449150487182E-18
      5.69339388902666E-02
      0.00000000000000E+00   7.17831708033894E-11   0.00000000000000E+00   0.00000000000000E+00  -3.65249520208244E-10
      7.06220430086552E-34  -3.65249520208244E-10   5.24931922544258E-18   0.00000000000000E+00   0.00000000000000E+00
      0.00000000000000E+00   0.00000000000000E+00   0.00000000000000E+00   0.00000000000000E+00   0.00000000000000E+00
      3.55534793170471E-18   0.00000000000000E+00   0.00000000000000E+00   0.00000000000000E+00   0.00000000000000E+00
      5.62709237588220E-18  -1.27585214672873E-33   5.62709237588220E-18  -1.32628420806309E-17   2.84669694451333E-03
      2.84669687190548E-03   0.00000000000000E+00   0.00000000000000E+00   3.65249514581152E-10   5.69631716642181E-34
      3.65249514581152E-10   4.45817492348361E-18
      6.36206661126266E-02
      0.00000000000000E+00   7.92941391073569E-11   0.00000000000000E+00   0.00000000000000E+00  -4.03460067930127E-10
      7.12006850485627E-34  -4.03460067930127E-10   5.24917066836255E-18   0.00000000000000E+00   0.00000000000000E+00
      0.00000000000000E+00   0.00000000000000E+00   0.00000000000000E+00   0.00000000000000E+00   0.00000000000000E+00
      3.55132644944472E-18   0.00000000000000E+00   0.00000000000000E+00   0.00000000000000E+00   0.00000000000000E+00
      8.19565288415273E-18  -1.32467058441051E-33   8.19565288415273E-18  -1.32627242434977E-17   3.18103330563133E-03
      3.18103322542637E-03   0.00000000000000E+00   0.00000000000000E+00   4.03460059734474E-10   6.12663733924880E-34
      4.03460059734474E-10   4.46222712569046E-18
      7.09760660572226E-02
      0.00000000000000E+00   8.73437210321703E-11   0.00000000000000E+00   0.00000000000000E+00  -4.44408949095982E-10
      7.27837009627911E-34  -4.44408949095982E-10   5.24900726669369E-18   0.00000000000000E+00   0.00000000000000E+00
      0.00000000000000E+00   0.00000000000000E+00   0.00000000000000E+00   0.00000000000000E+00   0.00000000000000E+00
      3.54690318335952E-18   0.00000000000000E+00   0.00000000000000E+00   0.00000000000000E+00   0.00000000000000E+00
      1.19055485553559E-17  -1.30608360715058E-33   1.19055485553559E-17  -1.32625955306549E-17   3.54880330286113E-03
      3.54880321451429E-03   0.00000000000000E+00   0.00000000000000E+00   4.44408937190433E-10   5.78246597522666E-34
      4.44408937190433E-10   4.46668508060162E-18
      7.90670059962782E-02
      0.00000000000000E+00   9.59461853137887E-11   0.00000000000000E+00   0.00000000000000E+00  -4.88168353471650E-10
      7.52303649242875E-34  -4.88168353471650E-10   5.24882753822932E-18   0.00000000000000E+00   0.00000000000000E+00
      0.00000000000000E+00   0.00000000000000E+00   0.00000000000000E+00   0.00000000000000E+00   0.00000000000000E+00
      3.54203802896753E-18   0.00000000000000E+00   0.00000000000000E+00   0.00000000000000E+00   0.00000000000000E+00
      3.30523564340171E-17  -1.33538329951715E-33   3.30523564340171E-17  -1.32624550398386E-17   3.95335029981391E-03
      3.95335020276600E-03   0.00000000000000E+00   0.00000000000000E+00   4.88168320419294E-10   5.83079650274273E-34
      4.88168320419294E-10   4.47158947264172E-18
      8.79670399292394E-02
      0.00000000000000E+00   1.05110710685637E-10   0.00000000000000E+00   0.00000000000000E+00  -5.34784471804678E-10
      6.82592223947979E-34  -5.34784471804678E-10   5.24862985298610E-18   0.00000000000000E+00   0.00000000000000E+00
      0.00000000000000E+00   0.00000000000000E+00   0.00000000000000E+00   0.00000000000000E+00   0.00000000000000E+00
      3.53668688601230E-18   0.00000000000000E+00   0.00000000000000E+00   0.00000000000000E+00   0.00000000000000E+00
      2.49804686134443E-17  -1.25890860074644E-33   2.49804686134443E-17  -1.32623018157346E-17   4.39835199646197E-03
      4.39835189014451E-03   0.00000000000000E+00   0.00000000000000E+00   5.34784446824209E-10   5.76316376798464E-34
      5.34784446824209E-10   4.47698507673619E-18
      9.77570772554967E-02
      0.00000000000000E+00   1.14840116453130E-10   0.00000000000000E+00   0.00000000000000E+00  -5.84271153464906E-10
      7.10791289655589E-34  -5.84271153464906E-10   5.24841241851017E-18   0.00000000000000E+00   0.00000000000000E+00
      0.00000000000000E+00   0.00000000000000E+00   0.00000000000000E+00   0.00000000000000E+00   0.00000000000000E+00
      3.53080126170660E-18   0.00000000000000E+00   0.00000000000000E+00   0.00000000000000E+00   0.00000000000000E+00
      3.61186883111402E-17  -1.25969551385914E-33   3.61186883111402E-17  -1.32621348519374E-17   4.88785386277484E-03
      4.88785374661652E-03   0.00000000000000E+00   0.00000000000000E+00   5.84271117346218E-10   5.48904224203554E-34
      5.84271117346218E-10   4.48292117172064E-18
      1.07757077255497E-01
      0.00000000000000E+00   1.24408681584715E-10   0.00000000000000E+00   0.00000000000000E+00  -6.32936892286014E-10
      7.06303474038686E-34  -6.32936892286014E-10   5.24819034150131E-18   0.00000000000000E+00   0.00000000000000E+00
      0.00000000000000E+00   0.00000000000000E+00   0.00000000000000E+00   0.00000000000000E+00   0.00000000000000E+00
      3.52479009027076E-18   0.00000000000000E+00   0.00000000000000E+00   0.00000000000000E+00   0.00000000000000E+00
      4.16094274597253E-17  -1.28900461785957E-33   4.16094274597253E-17  -1.32619660083156E-17   5.38785386277483E-03
      5.38785373693840E-03   0.00000000000000E+00   0.00000000000000E+00   6.32936850676586E-10   5.82701143820878E-34
      6.32936850676586E-10   4.48898557654351E-18
      1.17757077255497E-01
      0.00000000000000E+00   1.33615060275292E-10   0.00000000000000E+00   0.00000000000000E+00  -6.79757917325412E-10
      6.94655432212423E-34  -6.79757917325412E-10   5.24796828521747E-18   0.00000000000000E+00   0.00000000000000E+00
      0.00000000000000E+00   0.00000000000000E+00   0.00000000000000E+00   0.00000000000000E+00   0.00000000000000E+00
      3.51877959987160E-18   0.00000000000000E+00   0.00000000000000E+00   0.00000000000000E+00   0.00000000000000E+00
      4.18120785839310E-17  -1.25056238809791E-33   4.18120785839310E-17  -1.32617988724676E-17   5.88785386277483E-03
      5.88785372762665E-03   0.00000000000000E+00   0.00000000000000E+00   6.79757875513333E-10   5.55906955885491E-34
      6.79757875513333E-10   4.49505098737855E-18
      1.27757077255497E-01
      0.00000000000000E+00   1.42470548607494E-10   0.00000000000000E+00   0.00000000000000E+00  -7.24791853822991E-10
      7.22786997308253E-34  -7.24791853822991E-10   5.24774624947107E-18   0.00000000000000E+00   0.00000000000000E+00
      0.00000000000000E+00   0.00000000000000E+00   0.00000000000000E+00   0.00000000000000E+00   0.00000000000000E+00
      3.51276978500513E-18   0.00000000000000E+00   0.00000000000000E+00   0.00000000000000E+00   0.00000000000000E+00
      4.46173793676171E-17  -1.27103757482748E-33   4.46173793676171E-17  -1.32616334330753E-17   6.38785386277483E-03
      6.38785371866984E-03   0.00000000000000E+00   0.00000000000000E+00   7.24791809205612E-10   5.48250577519226E-34
      7.24791809205612E-10   4.50111739859908E-18
      1.37757077255497E-01
      0.00000000000000E+00   1.50986276195370E-10   0.00000000000000E+00   0.00000000000000E+00  -7.68095628468184E-10
      6.77878900579859E-34  -7.68095628468184E-10   5.24752423407495E-18   0.00000000000000E+00   0.00000000000000E+00
      0.00000000000000E+00   0.00000000000000E+00   0.00000000000000E+00   0.00000000000000E+00   0.00000000000000E+00
      3.50676064023515E-18   0.00000000000000E+00   0.00000000000000E+00   0.00000000000000E+00   0.00000000000000E+00
      4.46534673704888E-17  -1.21490711295102E-33   4.46534673704888E-17  -1.32614696789340E-17   6.88785386277483E-03
      6.88785371005672E-03   0.00000000000000E+00   0.00000000000000E+00   7.68095583814717E-10   5.37028212371161E-34
      7.68095583814717E-10   4.50718480462390E-18
      1.47757077255497E-01
      0.00000000000000E+00   1.59173231605692E-10   0.00000000000000E+00   0.00000000000000E+00  -8.09725358085547E-10
      7.13225015875035E-34  -8.09725358085547E-10   5.24730223884191E-18   0.00000000000000E+00   0.00000000000000E+00
      0.00000000000000E+00   0.00000000000000E+00   0.00000000000000E+00   0.00000000000000E+00   0.00000000000000E+00
      3.50075216016265E-18   0.00000000000000E+00   0.00000000000000E+00   0.00000000000000E+00   0.00000000000000E+00
      3.22725313619747E-17  -1.22085887334165E-33   3.22725313619747E-17  -1.32613075989096E-17   7.38785386277483E-03
      7.38785370177618E-03   0.00000000000000E+00   0.00000000000000E+00   8.09725325813016E-10   5.07633857466618E-34
      8.09725325813016E-10   4.51325319990507E-18
      1.57757077255497E-01
      0.00000000000000E+00   1.67042204954999E-10   0.00000000000000E+00   0.00000000000000E+00  -8.49736186205789E-10
      7.07810528392618E-34  -8.49736186205789E-10   5.24708026358527E-18   0.00000000000000E+00   0.00000000000000E+00
      0.00000000000000E+00   0.00000000000000E+00   0.00000000000000E+00   0.00000000000000E+00   0.00000000000000E+00
      3.49474433944456E-18   0.00000000000000E+00   0.00000000000000E+00   0.00000000000000E+00   0.00000000000000E+00
      3.92589848727626E-17  -1.22137207772695E-33   3.92589848727626E-17  -1.32611471819625E-17   7.88785386277484E-03
      7.88785369381731E-03   0.00000000000000E+00   0.00000000000000E+00   8.49736146946804E-10   5.13561549334330E-34
      8.49736146946804E-10   4.51932257893266E-18
      1.67757077255497E-01
      0.00000000000000E+00   1.74603791189760E-10   0.00000000000000E+00   0.00000000000000E+00  -8.88182211462805E-10
      7.15328419629778E-34  -8.88182211462805E-10   5.24685830811856E-18   0.00000000000000E+00   0.00000000000000E+00
      0.00000000000000E+00   0.00000000000000E+00   0.00000000000000E+00   0.00000000000000E+00   0.00000000000000E+00
      3.48873717276200E-18   0.00000000000000E+00   0.00000000000000E+00   0.00000000000000E+00   0.00000000000000E+00
      3.86477326115875E-17  -1.21342574268459E-33   3.86477326115875E-17  -1.32609884171064E-17   8.38785386277484E-03
      8.38785368616936E-03   0.00000000000000E+00   0.00000000000000E+00   8.88182172815072E-10   4.98097323054809E-34
      8.88182172815072E-10   4.52539293622577E-18
      1.77757077255497E-01
      0.00000000000000E+00   1.81868342523926E-10   0.00000000000000E+00   0.00000000000000E+00  -9.25116406076186E-10
      7.33687066935903E-34  -9.25116406076186E-10   5.24663637225568E-18   0.00000000000000E+00   0.00000000000000E+00
      0.00000000000000E+00   0.00000000000000E+00   0.00000000000000E+00   0.00000000000000E+00   0.00000000000000E+00
      3.48273065483617E-18   0.00000000000000E+00   0.00000000000000E+00   0.00000000000000E+00   0.00000000000000E+00
      3.21309720479871E-17  -1.20267797460317E-33   3.21309720479871E-17  -1.32608312934274E-17   8.88785386277484E-03
      8.88785367882188E-03   0.00000000000000E+00   0.00000000000000E+00   9.25116373945214E-10   4.68990907667265E-34
      9.25116373945214E-10   4.53146426633557E-18
      1.87757077255497E-01
      0.00000000000000E+00   1.88845997960452E-10   0.00000000000000E+00   0.00000000000000E+00  -9.60590494473938E-10
      7.01686973356909E-34  -9.60590494473938E-10   5.24641445581149E-18   0.00000000000000E+00   0.00000000000000E+00
      0.00000000000000E+00   0.00000000000000E+00   0.00000000000000E+00   0.00000000000000E+00   0.00000000000000E+00
      3.47672478044095E-18   0.00000000000000E+00   0.00000000000000E+00   0.00000000000000E+00   0.00000000000000E+00
      3.74142378545252E-17  -1.20459480505328E-33   3.74142378545252E-17  -1.32606758001042E-17   9.38785386277484E-03
      9.38785367176461E-03   0.00000000000000E+00   0.00000000000000E+00   9.60590457059700E-10   5.02907831696372E-34
      9.60590457059700E-10   4.53753656385176E-18
      1.97757077255497E-01
      0.00000000000000E+00   1.95546643109222E-10   0.00000000000000E+00   0.00000000000000E+00  -9.94654971762025E-10