DF-ISE text

Info {
  version   = 1.0
  type      = xyplot
  datasets  = [
    "time"
    "source OuterVoltage" "source InnerVoltage" "source QuasiFermiPotential" "source DisplacementCurrent" "source eCurrent"
    "source hCurrent" "source TotalCurrent" "source Charge" "gate OuterVoltage" "gate InnerVoltage"
    "gate QuasiFermiPotential" "gate DisplacementCurrent" "gate eCurrent" "gate hCurrent" "gate TotalCurrent"
    "gate Charge" "substrate OuterVoltage" "substrate InnerVoltage" "substrate QuasiFermiPotential" "substrate DisplacementCurrent"
    "substrate eCurrent" "substrate hCurrent" "substrate TotalCurrent" "substrate Charge" "drain OuterVoltage"
    "drain InnerVoltage" "drain QuasiFermiPotential" "drain DisplacementCurrent" "drain eCurrent" "drain hCurrent"
    "drain TotalCurrent" "drain Charge" ]
  functions = [
    Time
    OuterVoltage InnerVoltage QuasiFermiPotential DisplacementCurrent eCurrent
    hCurrent TotalCurrent Charge OuterVoltage InnerVoltage
    QuasiFermiPotential DisplacementCurrent eCurrent hCurrent TotalCurrent
    Charge OuterVoltage InnerVoltage QuasiFermiPotential DisplacementCurrent
    eCurrent hCurrent TotalCurrent Charge OuterVoltage
    InnerVoltage QuasiFermiPotential DisplacementCurrent eCurrent hCurrent
    TotalCurrent Charge ]
}

Data {
      0.00000000000000E+00
      0.00000000000000E+00   0.00000000000000E+00   0.00000000000000E+00   0.00000000000000E+00  -2.49127663787414E-21
      4.86842440489608E-34  -2.49127663787365E-21   5.13602911105795E-18   0.00000000000000E+00   0.00000000000000E+00
      0.00000000000000E+00   0.00000000000000E+00   0.00000000000000E+00   0.00000000000000E+00   0.00000000000000E+00
      4.35428194433634E-18   0.00000000000000E+00   0.00000000000000E+00   0.00000000000000E+00   0.00000000000000E+00
     -6.28753234200717E-22  -1.01001596210769E-33  -6.28753234201727E-22  -1.38259808855489E-17   0.00000000000000E+00
      0.00000000000000E+00   0.00000000000000E+00   0.00000000000000E+00   3.12002987207486E-21   5.23173521618082E-34
      3.12002987207538E-21   4.33566983015457E-18
      0.00000000000000E+00
      0.00000000000000E+00   0.00000000000000E+00   0.00000000000000E+00   0.00000000000000E+00  -3.29341194171689E-19
      4.92236930175026E-34  -3.29341194171688E-19   5.13436135901445E-18   0.00000000000000E+00   0.00000000000000E+00
      0.00000000000000E+00   0.00000000000000E+00   0.00000000000000E+00   0.00000000000000E+00   0.00000000000000E+00
      4.34766200927659E-18   0.00000000000000E+00   0.00000000000000E+00   0.00000000000000E+00   0.00000000000000E+00
      2.57332506339832E-19  -9.99774543903144E-34   2.57332506339831E-19  -1.38163595807640E-17   0.00000000000000E+00
      0.00000000000000E+00   0.00000000000000E+00   0.00000000000000E+00   7.20086878318567E-20   5.07537613728118E-34
      7.20086878318572E-20   4.33433621247300E-18
      1.00000000000000E-03
      0.00000000000000E+00   2.12296740975995E-11   0.00000000000000E+00   0.00000000000000E+00  -9.39162071464880E-11
      4.79545315940214E-34  -9.39162071464880E-11   5.13414043978449E-18   0.00000000000000E+00   0.00000000000000E+00
      0.00000000000000E+00   0.00000000000000E+00   0.00000000000000E+00   0.00000000000000E+00   0.00000000000000E+00
      4.33681678503930E-18   0.00000000000000E+00   0.00000000000000E+00   0.00000000000000E+00   0.00000000000000E+00
     -2.40764503685076E-20  -9.71627261517363E-34  -2.40764503685086E-20  -1.38158649471994E-17   8.60000000000000E-04
      8.59999978676718E-04   0.00000000000000E+00   0.00000000000000E+00   9.39162071705644E-11   4.92081945577148E-34
      9.39162071705644E-11   4.34490772237563E-18
      2.08666666666667E-03
      0.00000000000000E+00   4.29913043294848E-11   0.00000000000000E+00   0.00000000000000E+00  -1.90171583939258E-10
      5.02478783381280E-34  -1.90171583939258E-10   5.13390042211440E-18   0.00000000000000E+00   0.00000000000000E+00
      0.00000000000000E+00   0.00000000000000E+00   0.00000000000000E+00   0.00000000000000E+00   0.00000000000000E+00
      4.32503438165998E-18   0.00000000000000E+00   0.00000000000000E+00   0.00000000000000E+00   0.00000000000000E+00
     -1.97728667328302E-20  -9.55077591186923E-34  -1.97728667328311E-20  -1.38153344288345E-17   1.79453333333333E-03
      1.79453329015276E-03   0.00000000000000E+00   0.00000000000000E+00   1.90171583959031E-10   4.52598807805643E-34
      1.90171583959031E-10   4.35639962506012E-18
      3.27475555555556E-03
      0.00000000000000E+00   6.52499948456890E-11   0.00000000000000E+00   0.00000000000000E+00  -2.88607190177216E-10
      4.82971167471054E-34  -2.88607190177216E-10   5.13363805919518E-18   0.00000000000000E+00   0.00000000000000E+00
      0.00000000000000E+00   0.00000000000000E+00   0.00000000000000E+00   0.00000000000000E+00   0.00000000000000E+00
      4.31215550334060E-18   0.00000000000000E+00   0.00000000000000E+00   0.00000000000000E+00   0.00000000000000E+00
      3.30700708591018E-19  -9.37414859375568E-34   3.30700708591017E-19  -1.38147626197539E-17   2.81628977777778E-03
      2.81628971224094E-03   0.00000000000000E+00   0.00000000000000E+00   2.88607189846516E-10   4.54443691904515E-34
      2.88607189846516E-10   4.36896905721811E-18
      4.57373274074074E-03
      0.00000000000000E+00   8.78273368150056E-11   0.00000000000000E+00   0.00000000000000E+00  -3.88430373793803E-10
      5.20391887018128E-34  -3.88430373793803E-10   5.13335127536362E-18   0.00000000000000E+00   0.00000000000000E+00
      0.00000000000000E+00   0.00000000000000E+00   0.00000000000000E+00   0.00000000000000E+00   0.00000000000000E+00
      4.29807837681717E-18   0.00000000000000E+00   0.00000000000000E+00   0.00000000000000E+00   0.00000000000000E+00
      1.30198494442455E-19  -9.67488557214205E-34   1.30198494442454E-19  -1.38141471459418E-17   3.93341015703704E-03
      3.93341006882414E-03   0.00000000000000E+00   0.00000000000000E+00   3.88430373663604E-10   4.47096670196077E-34
      3.88430373663604E-10   4.38271749376097E-18
      5.99394779654321E-03
      0.00000000000000E+00   1.10524435738021E-10   0.00000000000000E+00   0.00000000000000E+00  -4.88758761236791E-10
      5.02324127764288E-34  -4.88758761236791E-10   5.13303780271116E-18   0.00000000000000E+00   0.00000000000000E+00
      0.00000000000000E+00   0.00000000000000E+00   0.00000000000000E+00   0.00000000000000E+00   0.00000000000000E+00
      4.28269182239960E-18   0.00000000000000E+00   0.00000000000000E+00   0.00000000000000E+00   0.00000000000000E+00
     -2.55056929931928E-19  -8.98341942696248E-34  -2.55056929931929E-19  -1.38134856648070E-17   5.15479510502716E-03
      5.15479499401814E-03   0.00000000000000E+00   0.00000000000000E+00   4.88758761491848E-10   3.96017814931960E-34
      4.88758761491848E-10   4.39775603969619E-18
      7.54671625755391E-03
      0.00000000000000E+00   1.33121309735329E-10   0.00000000000000E+00   0.00000000000000E+00  -5.88617593049415E-10
      5.04127543182986E-34  -5.88617593049415E-10   5.13269516333433E-18   0.00000000000000E+00   0.00000000000000E+00
      0.00000000000000E+00   0.00000000000000E+00   0.00000000000000E+00   0.00000000000000E+00   0.00000000000000E+00
      4.26587438889386E-18   0.00000000000000E+00   0.00000000000000E+00   0.00000000000000E+00   0.00000000000000E+00
     -1.66634132096006E-20  -9.12133645398041E-34  -1.66634132096015E-20  -1.38127759070290E-17   6.49017598149636E-03
      6.49017584779205E-03   0.00000000000000E+00   0.00000000000000E+00   5.88617593066079E-10   4.08006102215057E-34
      5.88617593066079E-10   4.41420635480083E-18
      9.24440977492561E-03
      0.00000000000000E+00   1.55378838887707E-10   0.00000000000000E+00   0.00000000000000E+00  -6.86948929520868E-10
      5.01293811501397E-34  -6.86948929520868E-10   5.13232064993744E-18   0.00000000000000E+00   0.00000000000000E+00
      0.00000000000000E+00   0.00000000000000E+00   0.00000000000000E+00   0.00000000000000E+00   0.00000000000000E+00
      4.24749340986039E-18   0.00000000000000E+00   0.00000000000000E+00   0.00000000000000E+00   0.00000000000000E+00
      2.07951015211418E-20  -8.94345018162068E-34   2.07951015211409E-20  -1.38120157283105E-17   7.95019240643603E-03
      7.95019225037743E-03   0.00000000000000E+00   0.00000000000000E+00   6.86948929500073E-10   3.93051206660670E-34
      6.86948929500073E-10   4.43220166851267E-18
      1.11005546872520E-02
      0.00000000000000E+00   1.77043863048204E-10   0.00000000000000E+00   0.00000000000000E+00  -7.82634330426135E-10
      5.14146427362610E-34  -7.82634330426135E-10   5.13191130460264E-18   0.00000000000000E+00   0.00000000000000E+00
      0.00000000000000E+00   0.00000000000000E+00   0.00000000000000E+00   0.00000000000000E+00   0.00000000000000E+00
      4.22740397160899E-18   0.00000000000000E+00   0.00000000000000E+00   0.00000000000000E+00   0.00000000000000E+00
      1.80796924265183E-19  -8.72005983791015E-34   1.80796924265182E-19  -1.38112031694820E-17   9.54647703103672E-03
      9.54647685321891E-03   0.00000000000000E+00   0.00000000000000E+00   7.82634330245338E-10   3.57859556428405E-34
      7.82634330245338E-10   4.45188789327043E-18
      1.31299397913955E-02
      0.00000000000000E+00   1.97855776637624E-10   0.00000000000000E+00   0.00000000000000E+00  -8.74524371925090E-10
      4.99782201554781E-34  -8.74524371925090E-10   5.13146389558348E-18   0.00000000000000E+00   0.00000000000000E+00
      0.00000000000000E+00   0.00000000000000E+00   0.00000000000000E+00   0.00000000000000E+00   0.00000000000000E+00
      4.20544778702931E-18   0.00000000000000E+00   0.00000000000000E+00   0.00000000000000E+00   0.00000000000000E+00
      1.78484570441091E-19  -8.54115278561016E-34   1.78484570441090E-19  -1.38103365288782E-17   1.12917482206002E-02
      1.12917480218799E-02   0.00000000000000E+00   0.00000000000000E+00   8.74524371746606E-10   3.54333077006234E-34
      8.74524371746606E-10   4.47342484626547E-18
      1.53487341719258E-02
      0.00000000000000E+00   2.17555495952649E-10   0.00000000000000E+00   0.00000000000000E+00  -9.61478825856233E-10
      5.04579477980192E-34  -9.61478825856233E-10   5.13097489191862E-18   0.00000000000000E+00   0.00000000000000E+00
      0.00000000000000E+00   0.00000000000000E+00   0.00000000000000E+00   0.00000000000000E+00   0.00000000000000E+00
      4.18145196512659E-18   0.00000000000000E+00   0.00000000000000E+00   0.00000000000000E+00   0.00000000000000E+00
     -1.51740914814192E-19  -8.30093480559554E-34  -1.51740914814193E-19  -1.38094144470482E-17   1.31999113878562E-02
      1.31999111693501E-02   0.00000000000000E+00   0.00000000000000E+00   9.61478826007973E-10   3.25514002579363E-34
      9.61478826007973E-10   4.49698759000298E-18
      1.77746160279722E-02
      0.00000000000000E+00   2.35896824737478E-10   0.00000000000000E+00   0.00000000000000E+00  -1.04241742340042E-09
      5.06246908065385E-34  -1.04241742340042E-09   5.13044043563327E-18   0.00000000000000E+00   0.00000000000000E+00
      0.00000000000000E+00   0.00000000000000E+00   0.00000000000000E+00   0.00000000000000E+00   0.00000000000000E+00
      4.15522766546236E-18   0.00000000000000E+00   0.00000000000000E+00   0.00000000000000E+00   0.00000000000000E+00
     -7.27391401650126E-20  -7.93972757979566E-34  -7.27391401650134E-20  -1.38084360036297E-17   1.52861697840561E-02
      1.52861695471282E-02   0.00000000000000E+00   0.00000000000000E+00   1.04241742347316E-09   2.87725849914181E-34
      1.04241742347316E-09   4.52276790253411E-18
      2.04269135239163E-02
      0.00000000000000E+00   2.52659842914772E-10   0.00000000000000E+00   0.00000000000000E+00  -1.11637895053333E-09
      4.84703638183158E-34  -1.11637895053333E-09   5.12985631131303E-18   0.00000000000000E+00   0.00000000000000E+00
      0.00000000000000E+00   0.00000000000000E+00   0.00000000000000E+00   0.00000000000000E+00   0.00000000000000E+00
      4.12656862761234E-18   0.00000000000000E+00   0.00000000000000E+00   0.00000000000000E+00   0.00000000000000E+00
      1.42758773847593E-19  -7.73281152506764E-34   1.42758773847593E-19  -1.38074008291524E-17   1.75671456305680E-02
      1.75671453768028E-02   0.00000000000000E+00   0.00000000000000E+00   1.11637895039057E-09   2.88577514323606E-34
      1.11637895039057E-09   4.55097589022702E-18
      2.33267587861485E-02
      0.00000000000000E+00   2.67666018907557E-10   0.00000000000000E+00   0.00000000000000E+00  -1.18258847635754E-09
      5.08392093748781E-34  -1.18258847635754E-09   5.12921791276492E-18   0.00000000000000E+00   0.00000000000000E+00
      0.00000000000000E+00   0.00000000000000E+00   0.00000000000000E+00   0.00000000000000E+00   0.00000000000000E+00
      4.09524956181375E-18   0.00000000000000E+00   0.00000000000000E+00   0.00000000000000E+00   0.00000000000000E+00
     -8.30952797016844E-20  -7.61526841184756E-34  -8.30952797016851E-20  -1.38063092303124E-17   2.00610125560877E-02
      2.00610122872491E-02   0.00000000000000E+00   0.00000000000000E+00   1.18258847644064E-09   2.53134747435975E-34
      1.18258847644064E-09   4.58184175573377E-18
      2.64972562728556E-02
      0.00000000000000E+00   2.80794229249780E-10   0.00000000000000E+00   0.00000000000000E+00  -1.24052801593086E-09
      4.92439566411308E-34  -1.24052801593086E-09   5.12852020649579E-18   0.00000000000000E+00   0.00000000000000E+00
      0.00000000000000E+00   0.00000000000000E+00   0.00000000000000E+00   0.00000000000000E+00   0.00000000000000E+00
      4.06102438818344E-18   0.00000000000000E+00   0.00000000000000E+00   0.00000000000000E+00   0.00000000000000E+00
      2.57591337108769E-20  -7.24335712125295E-34   2.57591337108762E-20  -1.38051623305306E-17   2.27876403946559E-02
      2.27876401126293E-02   0.00000000000000E+00   0.00000000000000E+00   1.24052801590510E-09   2.31896145713988E-34
      1.24052801590510E-09   4.61561773585143E-18
      2.99636668583222E-02
      0.00000000000000E+00   2.91997209094623E-10   0.00000000000000E+00   0.00000000000000E+00  -1.29000885256710E-09
      4.86814910420052E-34  -1.29000885256710E-09   5.12775769165863E-18   0.00000000000000E+00   0.00000000000000E+00
      0.00000000000000E+00   0.00000000000000E+00   0.00000000000000E+00   0.00000000000000E+00   0.00000000000000E+00
      4.02362430603671E-18   0.00000000000000E+00   0.00000000000000E+00   0.00000000000000E+00   0.00000000000000E+00
     -2.49674273183829E-19  -6.87978990520361E-34  -2.49674273183830E-19  -1.38039622215971E-17   2.57687534981571E-02
      2.57687532048756E-02   0.00000000000000E+00   0.00000000000000E+00   1.29000885281678E-09   2.01164080100309E-34
      1.29000885281678E-09   4.65258022390178E-18
      3.37536090984323E-02
      0.00000000000000E+00   3.01315263689567E-10   0.00000000000000E+00   0.00000000000000E+00  -1.33123130324280E-09
      4.97779908253807E-34  -1.33123130324280E-09   5.12692435620072E-18   0.00000000000000E+00   0.00000000000000E+00
      0.00000000000000E+00   0.00000000000000E+00   0.00000000000000E+00   0.00000000000000E+00   0.00000000000000E+00
      3.98275568192740E-18   0.00000000000000E+00   0.00000000000000E+00   0.00000000000000E+00   0.00000000000000E+00
     -8.37596195619150E-19  -6.85602387595515E-34  -8.37596195619150E-19  -1.38027121326933E-17   2.90281038246517E-02
      2.90281035220085E-02   0.00000000000000E+00   0.00000000000000E+00   1.33123130408040E-09   1.87822479341707E-34
      1.33123130408040E-09   4.69303209456517E-18
      3.78972792809526E-02
      0.00000000000000E+00   3.08886142973182E-10   0.00000000000000E+00   0.00000000000000E+00  -1.36482725339026E-09
      4.77303293521954E-34  -1.36482725339026E-09   5.12601362880811E-18   0.00000000000000E+00   0.00000000000000E+00
      0.00000000000000E+00   0.00000000000000E+00   0.00000000000000E+00   0.00000000000000E+00   0.00000000000000E+00
      3.93809773109751E-18   0.00000000000000E+00   0.00000000000000E+00   0.00000000000000E+00   0.00000000000000E+00
     -1.72675078017145E-18  -6.48834539121611E-34  -1.72675078017146E-18  -1.38014166070220E-17   3.25916601816192E-02
      3.25916598713695E-02   0.00000000000000E+00   0.00000000000000E+00   1.36482725511701E-09   1.71531245599656E-34
      1.36482725511701E-09   4.73730524711633E-18
      4.24276920138415E-02
      0.00000000000000E+00   3.14946414954377E-10   0.00000000000000E+00   0.00000000000000E+00  -1.39186356873547E-09
      5.18077945522559E-34  -1.39186356873547E-09   5.12501832635196E-18   0.00000000000000E+00   0.00000000000000E+00
      0.00000000000000E+00   0.00000000000000E+00   0.00000000000000E+00   0.00000000000000E+00   0.00000000000000E+00
      3.88929997421359E-18   0.00000000000000E+00   0.00000000000000E+00   0.00000000000000E+00   0.00000000000000E+00
     -2.76246565601831E-19  -6.62350445435122E-34  -2.76246565601832E-19  -1.38000816865774E-17   3.64878151319037E-02
      3.64878148155666E-02   0.00000000000000E+00   0.00000000000000E+00   1.39186356901172E-09   1.44272499912562E-34
      1.39186356901172E-09   4.78576338601191E-18
      4.73809432684667E-02
      0.00000000000000E+00   3.19819385125191E-10   0.00000000000000E+00   0.00000000000000E+00  -1.41378638447458E-09
      4.95703516236847E-34  -1.41378638447458E-09   5.12393059652461E-18   0.00000000000000E+00   0.00000000000000E+00
      0.00000000000000E+00   0.00000000000000E+00   0.00000000000000E+00   0.00000000000000E+00   0.00000000000000E+00
      3.83597944625871E-18   0.00000000000000E+00   0.00000000000000E+00   0.00000000000000E+00   0.00000000000000E+00
     -4.14264646529695E-18  -6.17886497837765E-34  -4.14264646529695E-18  -1.37987151013328E-17   4.07476112108814E-02
      4.07476108896531E-02   0.00000000000000E+00   0.00000000000000E+00   1.41378638861723E-09   1.22182981600918E-34
      1.41378638861723E-09   4.83880505854944E-18
      5.27964979735236E-02
      0.00000000000000E+00   3.23887184244302E-10   0.00000000000000E+00   0.00000000000000E+00  -1.43229409706976E-09
      5.08923382718116E-34  -1.43229409706976E-09   5.12274185541930E-18   0.00000000000000E+00   0.00000000000000E+00
      0.00000000000000E+00   0.00000000000000E+00   0.00000000000000E+00   0.00000000000000E+00   0.00000000000000E+00
      3.77771764018551E-18   0.00000000000000E+00   0.00000000000000E+00   0.00000000000000E+00   0.00000000000000E+00
     -7.76594713676438E-18  -6.19136017256447E-34  -7.76594713676438E-18  -1.37973264673272E-17   4.54049882572303E-02
      4.54049879319258E-02   0.00000000000000E+00   0.00000000000000E+00   1.43229410483570E-09   1.10212634538331E-34
      1.43229410483570E-09   4.89686697172237E-18
      5.87175044510525E-02
      0.00000000000000E+00   3.27548779841606E-10   0.00000000000000E+00   0.00000000000000E+00  -1.44915366990684E-09
      4.65001628345822E-34  -1.44915366990684E-09   5.12144271978711E-18   0.00000000000000E+00   0.00000000000000E+00
      0.00000000000000E+00   0.00000000000000E+00   0.00000000000000E+00   0.00000000000000E+00   0.00000000000000E+00
      3.71405716346142E-18   0.00000000000000E+00   0.00000000000000E+00   0.00000000000000E+00   0.00000000000000E+00
     -8.24046811253167E-18  -5.56557681397267E-34  -8.24046811253167E-18  -1.37959274919399E-17   5.04970538279052E-02
      5.04970534989415E-02   0.00000000000000E+00   0.00000000000000E+00   1.44915367814731E-09   9.15560530514447E-35
      1.44915367814731E-09   4.96042760869141E-18
      6.51911381998174E-02
      0.00000000000000E+00   3.31165363792419E-10   0.00000000000000E+00   0.00000000000000E+00  -1.46595865396427E-09
      5.11792126086419E-34  -1.46595865396427E-09   5.12002293404083E-18   0.00000000000000E+00   0.00000000000000E+00
      0.00000000000000E+00   0.00000000000000E+00   0.00000000000000E+00   0.00000000000000E+00   0.00000000000000E+00
      3.64449809704742E-18   0.00000000000000E+00   0.00000000000000E+00   0.00000000000000E+00   0.00000000000000E+00
     -7.89015280225554E-20  -5.87442395932929E-34  -7.89015280225560E-20  -1.37945322023960E-17   5.60643788518430E-02
      5.60643785192772E-02   0.00000000000000E+00   0.00000000000000E+00   1.46595865404317E-09   7.56502698465097E-35
      1.46595865404317E-09   5.03001117130776E-18
      7.22258202068086E-02
      0.00000000000000E+00   3.34976208804408E-10   0.00000000000000E+00   0.00000000000000E+00  -1.48374904525658E-09
      4.81383537902758E-34  -1.48374904525658E-09   5.11848075026585E-18   0.00000000000000E+00   0.00000000000000E+00
      0.00000000000000E+00   0.00000000000000E+00   0.00000000000000E+00   0.00000000000000E+00   0.00000000000000E+00
      3.56895732336110E-18   0.00000000000000E+00   0.00000000000000E+00   0.00000000000000E+00   0.00000000000000E+00
      7.55972823691650E-20  -5.43845922003168E-34   7.55972823691644E-20  -1.37931651152455E-17   6.21142053778554E-02
      6.21142050415049E-02   0.00000000000000E+00   0.00000000000000E+00   1.48374904518099E-09   6.24623841004101E-35
      1.48374904518099E-09   5.10572704161860E-18
      7.98701746544057E-02
      0.00000000000000E+00   3.39129171170686E-10   0.00000000000000E+00   0.00000000000000E+00  -1.50316431895673E-09
      5.22354779242505E-34  -1.50316431895673E-09   5.11680561103166E-18   0.00000000000000E+00   0.00000000000000E+00
      0.00000000000000E+00   0.00000000000000E+00   0.00000000000000E+00   0.00000000000000E+00   0.00000000000000E+00
      3.48692006352461E-18   0.00000000000000E+00   0.00000000000000E+00   0.00000000000000E+00   0.00000000000000E+00
     -1.38078990988412E-20  -5.68811810579192E-34  -1.38078990988418E-20  -1.37918440447516E-17   6.86883502027889E-02
      6.86883498623234E-02   0.00000000000000E+00   0.00000000000000E+00   1.50316431897053E-09   4.64570313366870E-35
      1.50316431897053E-09   5.18811837019539E-18
      8.81770398207946E-02
      0.00000000000000E+00   3.43709075085416E-10   0.00000000000000E+00   0.00000000000000E+00  -1.52458282633199E-09
      4.77396600749791E-34  -1.52458282633199E-09   5.11498604782219E-18   0.00000000000000E+00   0.00000000000000E+00
      0.00000000000000E+00   0.00000000000000E+00   0.00000000000000E+00   0.00000000000000E+00   0.00000000000000E+00
      3.39782700520768E-18   0.00000000000000E+00   0.00000000000000E+00   0.00000000000000E+00   0.00000000000000E+00
     -1.40416084878221E-19  -5.14161883441338E-34  -1.40416084878222E-19  -1.37905892245789E-17   7.58322542458833E-02
      7.58322539008877E-02   0.00000000000000E+00   0.00000000000000E+00   1.52458282647241E-09   3.67652826915473E-35
      1.52458282647241E-09   5.27777617154903E-18
      9.72038333016038E-02
      0.00000000000000E+00   3.48753945986525E-10   0.00000000000000E+00   0.00000000000000E+00  -1.54818419466781E-09
      5.05903439742771E-34  -1.54818419466781E-09   5.11300960532755E-18   0.00000000000000E+00   0.00000000000000E+00
      0.00000000000000E+00   0.00000000000000E+00   0.00000000000000E+00   0.00000000000000E+00   0.00000000000000E+00
      3.30107049733292E-18   0.00000000000000E+00   0.00000000000000E+00   0.00000000000000E+00   0.00000000000000E+00
     -2.97831563676228E-20  -5.35247311968753E-34  -2.97831563676234E-20  -1.37894235140351E-17   8.35952966393793E-02
      8.35952962893979E-02   0.00000000000000E+00   0.00000000000000E+00   1.54818419469760E-09   2.93438722259824E-35
      1.54818419469760E-09   5.37534341137461E-18
      1.07012948884083E-01
      0.00000000000000E+00   3.54266087717704E-10   0.00000000000000E+00   0.00000000000000E+00  -1.57399461580457E-09
      4.78806367250267E-34  -1.57399461580457E-09   5.11086275628717E-18   0.00000000000000E+00   0.00000000000000E+00
      0.00000000000000E+00   0.00000000000000E+00   0.00000000000000E+00   0.00000000000000E+00   0.00000000000000E+00
      3.19599035573760E-18   0.00000000000000E+00   0.00000000000000E+00   0.00000000000000E+00   0.00000000000000E+00
     -3.64151228083195E-20  -4.99955720395075E-34  -3.64151228083200E-20  -1.37883725209092E-17   9.20311360403115E-02
      9.20311356848859E-02   0.00000000000000E+00   0.00000000000000E+00   1.57399461584098E-09   2.11493531448090E-35
      1.57399461584098E-09   5.48151940888435E-18
      1.17012948884083E-01
      0.00000000000000E+00   3.59895552087864E-10   0.00000000000000E+00   0.00000000000000E+00  -1.60039216511238E-09
      4.65943700494157E-34  -1.60039216511238E-09   5.10867499768995E-18   0.00000000000000E+00   0.00000000000000E+00
      0.00000000000000E+00   0.00000000000000E+00   0.00000000000000E+00   0.00000000000000E+00   0.00000000000000E+00
      3.08892527910251E-18   0.00000000000000E+00   0.00000000000000E+00   0.00000000000000E+00   0.00000000000000E+00
      1.25832127571101E-19  -4.82625462872813E-34   1.25832127571100E-19  -1.37875139594972E-17   1.00631136040312E-01
      1.00631135679330E-01   0.00000000000000E+00   0.00000000000000E+00   1.60039216498655E-09   1.66817623786562E-35
      1.60039216498655E-09   5.58991368270471E-18
      1.27012948884083E-01
      0.00000000000000E+00   3.65543378538569E-10   0.00000000000000E+00   0.00000000000000E+00  -1.62691696565527E-09
      5.34634407476915E-34  -1.62691696565527E-09   5.10648803763266E-18   0.00000000000000E+00   0.00000000000000E+00
      0.00000000000000E+00   0.00000000000000E+00   0.00000000000000E+00   0.00000000000000E+00   0.00000000000000E+00
      2.98191473123489E-18   0.00000000000000E+00   0.00000000000000E+00   0.00000000000000E+00   0.00000000000000E+00
      4.03834708737472E-19  -5.46607497080249E-34   4.03834708737472E-19  -1.37868529366276E-17   1.09231136040312E-01
      1.09231135673758E-01   0.00000000000000E+00   0.00000000000000E+00   1.62691696525144E-09   1.19730896033341E-35
      1.62691696525144E-09   5.69845016776003E-18
      1.37012948884083E-01
      0.00000000000000E+00   3.71221286286614E-10   0.00000000000000E+00   0.00000000000000E+00  -1.65362230669568E-09
      4.75381928568157E-34  -1.65362230669568E-09   5.10430180899162E-18   0.00000000000000E+00   0.00000000000000E+00
      0.00000000000000E+00   0.00000000000000E+00   0.00000000000000E+00   0.00000000000000E+00   0.00000000000000E+00
      2.87495354285433E-18   0.00000000000000E+00   0.00000000000000E+00   0.00000000000000E+00   0.00000000000000E+00
      5.12883498812831E-20  -4.84252056902070E-34   5.12883498812826E-20  -1.37863737558584E-17   1.17831136040312E-01
      1.17831135668153E-01   0.00000000000000E+00   0.00000000000000E+00   1.65362230664439E-09   8.87012833391360E-36
      1.65362230664439E-09   5.80711840401246E-18
      1.47012948884083E-01
      0.00000000000000E+00   3.76936937929842E-10   0.00000000000000E+00   0.00000000000000E+00  -1.68054190449483E-09
      4.82358191078452E-34  -1.68054190449483E-09   5.10211625530329E-18   0.00000000000000E+00   0.00000000000000E+00
      0.00000000000000E+00   0.00000000000000E+00   0.00000000000000E+00   0.00000000000000E+00   0.00000000000000E+00
      2.76803725341470E-18   0.00000000000000E+00   0.00000000000000E+00   0.00000000000000E+00   0.00000000000000E+00
     -6.18889436279117E-20  -4.89142073446481E-34  -6.18889436279122E-20  -1.37860623148250E-17   1.26431136040312E-01
      1.26431135662509E-01   0.00000000000000E+00   0.00000000000000E+00   1.68054190455671E-09   6.78388236802849E-36
      1.68054190455671E-09   5.91590880610699E-18
      1.57012948884083E-01
      0.00000000000000E+00   3.82694751457620E-10   0.00000000000000E+00   0.00000000000000E+00  -1.70769433215488E-09
      4.76270281871452E-34  -1.70769433215488E-09   5.09993132665032E-18   0.00000000000000E+00   0.00000000000000E+00
      0.00000000000000E+00   0.00000000000000E+00   0.00000000000000E+00   0.00000000000000E+00   0.00000000000000E+00
      2.66116194754896E-18   0.00000000000000E+00   0.00000000000000E+00   0.00000000000000E+00   0.00000000000000E+00
     -2.65942935692630E-19  -4.81180635439898E-34  -2.65942935692631E-19  -1.37859058496316E-17   1.35031136040312E-01
      1.35031135656821E-01   0.00000000000000E+00   0.00000000000000E+00   1.70769433242082E-09   4.91035356844592E-36
      1.70769433242082E-09   6.02481257543234E-18
      1.67012948884083E-01
      0.00000000000000E+00   3.88496612691329E-10   0.00000000000000E+00   0.00000000000000E+00  -1.73508661445617E-09
      4.98509580308514E-34  -1.73508661445617E-09   5.09774697743459E-18   0.00000000000000E+00   0.00000000000000E+00
      0.00000000000000E+00   0.00000000000000E+00   0.00000000000000E+00   0.00000000000000E+00   0.00000000000000E+00
      2.55432413695408E-18   0.00000000000000E+00   0.00000000000000E+00   0.00000000000000E+00   0.00000000000000E+00
     -1.04569952772960E-19  -5.02163803926094E-34  -1.04569952772960E-19  -1.37858927313154E-17   1.43631136040312E-01
      1.43631135651090E-01   0.00000000000000E+00   0.00000000000000E+00   1.73508661456074E-09   3.65422361758045E-36
      1.73508661456074E-09   6.13382161692673E-18
      1.77012948884083E-01
      0.00000000000000E+00   3.94342746521819E-10   0.00000000000000E+00   0.00000000000000E+00  -1.76271867261609E-09
      4.98665306066054E-34  -1.76271867261609E-09   5.09556316580972E-18   0.00000000000000E+00   0.00000000000000E+00
      0.00000000000000E+00   0.00000000000000E+00   0.00000000000000E+00   0.00000000000000E+00   0.00000000000000E+00
      2.44752070325063E-18   0.00000000000000E+00   0.00000000000000E+00   0.00000000000000E+00   0.00000000000000E+00
      8.89452633382417E-20  -5.01526078984773E-34   8.89452633382412E-20  -1.37860123418047E-17   1.52231136040312E-01
      1.52231135645316E-01   0.00000000000000E+00   0.00000000000000E+00   1.76271867252714E-09   2.86077291871863E-36
      1.76271867252714E-09   6.24292847274440E-18
      1.87012948884083E-01
      0.00000000000000E+00   4.00232609605927E-10   0.00000000000000E+00   0.00000000000000E+00  -1.79058764628304E-09