DF-ISE text

Info {
  version   = 1.0
  type      = xyplot
  datasets  = [
    "time"
    "source OuterVoltage" "source InnerVoltage" "source QuasiFermiPotential" "source DisplacementCurrent" "source eCurrent"
    "source hCurrent" "source TotalCurrent" "source Charge" "gate OuterVoltage" "gate InnerVoltage"
    "gate QuasiFermiPotential" "gate DisplacementCurrent" "gate eCurrent" "gate hCurrent" "gate TotalCurrent"
    "gate Charge" "substrate OuterVoltage" "substrate InnerVoltage" "substrate QuasiFermiPotential" "substrate DisplacementCurrent"
    "substrate eCurrent" "substrate hCurrent" "substrate TotalCurrent" "substrate Charge" "drain OuterVoltage"
    "drain InnerVoltage" "drain QuasiFermiPotential" "drain DisplacementCurrent" "drain eCurrent" "drain hCurrent"
    "drain TotalCurrent" "drain Charge" ]
  functions = [
    Time
    OuterVoltage InnerVoltage QuasiFermiPotential DisplacementCurrent eCurrent
    hCurrent TotalCurrent Charge OuterVoltage InnerVoltage
    QuasiFermiPotential DisplacementCurrent eCurrent hCurrent TotalCurrent
    Charge OuterVoltage InnerVoltage QuasiFermiPotential DisplacementCurrent
    eCurrent hCurrent TotalCurrent Charge OuterVoltage
    InnerVoltage QuasiFermiPotential DisplacementCurrent eCurrent hCurrent
    TotalCurrent Charge ]
}

Data {
      0.00000000000000E+00
      0.00000000000000E+00   0.00000000000000E+00   0.00000000000000E+00   0.00000000000000E+00  -4.65491434455449E-22
      7.52428245454500E-34  -4.65491434454696E-22   5.44118802823641E-18   0.00000000000000E+00   0.00000000000000E+00
      0.00000000000000E+00   0.00000000000000E+00   0.00000000000000E+00   0.00000000000000E+00   0.00000000000000E+00
      3.64355988610779E-18   0.00000000000000E+00   0.00000000000000E+00   0.00000000000000E+00   0.00000000000000E+00
      8.83481227131773E-22  -1.46395005222799E-33   8.83481227130309E-22  -1.36806697972968E-17   0.00000000000000E+00
      0.00000000000000E+00   0.00000000000000E+00   0.00000000000000E+00  -4.17989792676324E-22   7.11521806773489E-34
     -4.17989792675613E-22   4.59592188295263E-18
      0.00000000000000E+00
      0.00000000000000E+00   7.84997753910485E-19   0.00000000000000E+00   0.00000000000000E+00  -3.61032192309727E-20
      7.32539261232826E-34  -3.61032192309720E-20   5.43874762316830E-18   0.00000000000000E+00   0.00000000000000E+00
      0.00000000000000E+00   0.00000000000000E+00   0.00000000000000E+00   0.00000000000000E+00   0.00000000000000E+00
      3.63681096461264E-18   0.00000000000000E+00   0.00000000000000E+00   0.00000000000000E+00   0.00000000000000E+00
      3.54967671303441E-20  -1.42049884875861E-33   3.54967671303427E-20  -1.36697156933273E-17   0.00000000000000E+00
     -7.84997753910485E-19   0.00000000000000E+00   0.00000000000000E+00   6.06452100628561E-22   6.87959587525785E-34
      6.06452100629249E-22   4.59415710554627E-18
      1.00000000000000E-03
      0.00000000000000E+00   1.27986112297341E-12   0.00000000000000E+00   0.00000000000000E+00  -6.83373246320136E-12
      7.80350448717928E-34  -6.83373246320136E-12   5.43872306452905E-18   0.00000000000000E+00   0.00000000000000E+00
      0.00000000000000E+00   0.00000000000000E+00   0.00000000000000E+00   0.00000000000000E+00   0.00000000000000E+00
      3.63620508985518E-18   0.00000000000000E+00   0.00000000000000E+00   0.00000000000000E+00   0.00000000000000E+00
     -6.87387119341702E-20  -1.48226887441599E-33  -6.87387119341717E-20  -1.36696984512042E-17   5.00000000000000E-05
      4.99999987058633E-05   0.00000000000000E+00   0.00000000000000E+00   6.83373253194007E-12   7.01918425698062E-34
      6.83373253194007E-12   4.59477029681999E-18
      2.09333333333333E-03
      0.00000000000000E+00   2.67492223632869E-12   0.00000000000000E+00   0.00000000000000E+00  -1.42825257609701E-11
      6.83100765815269E-34  -1.42825257609701E-11   5.43869621400567E-18   0.00000000000000E+00   0.00000000000000E+00
      0.00000000000000E+00   0.00000000000000E+00   0.00000000000000E+00   0.00000000000000E+00   0.00000000000000E+00
      3.63554267512084E-18   0.00000000000000E+00   0.00000000000000E+00   0.00000000000000E+00   0.00000000000000E+00
     -2.51644359926023E-21  -1.40441927656902E-33  -2.51644359926163E-21  -1.36696796205220E-17   1.04666666666667E-04
      1.04666663961915E-04   0.00000000000000E+00   0.00000000000000E+00   1.42825257634866E-11   7.21318510753747E-34
      1.42825257634866E-11   4.59544073139551E-18
      3.29600000000000E-03
      0.00000000000000E+00   4.20414417581379E-12   0.00000000000000E+00   0.00000000000000E+00  -2.24476978213604E-11
      7.01740269557807E-34  -2.24476978213604E-11   5.43866667873939E-18   0.00000000000000E+00   0.00000000000000E+00
      0.00000000000000E+00   0.00000000000000E+00   0.00000000000000E+00   0.00000000000000E+00   0.00000000000000E+00
      3.63481402895908E-18   0.00000000000000E+00   0.00000000000000E+00   0.00000000000000E+00   0.00000000000000E+00
     -3.24072812770512E-20  -1.42739058434929E-33  -3.24072812770526E-20  -1.36696589317341E-17   1.64800000000000E-04
      1.64799995748982E-04   0.00000000000000E+00   0.00000000000000E+00   2.24476978537677E-11   7.25650314791483E-34
      2.24476978537677E-11   4.59617822403562E-18
      4.61893333333333E-03
      0.00000000000000E+00   5.87971167656492E-12   0.00000000000000E+00   0.00000000000000E+00  -3.13941841804743E-11
      7.01790494451118E-34  -3.13941841804743E-11   5.43863419032168E-18   0.00000000000000E+00   0.00000000000000E+00
      0.00000000000000E+00   0.00000000000000E+00   0.00000000000000E+00   0.00000000000000E+00   0.00000000000000E+00
      3.63401253032516E-18   0.00000000000000E+00   0.00000000000000E+00   0.00000000000000E+00   0.00000000000000E+00
      1.96827181844746E-20  -1.41823552262975E-33   1.96827181844732E-20  -1.36696362042475E-17   2.30946666666667E-04
      2.30946660721405E-04   0.00000000000000E+00   0.00000000000000E+00   3.13941841607916E-11   7.16445028178630E-34
      3.13941841607916E-11   4.59698948360066E-18
      6.07416000000000E-03
      0.00000000000000E+00   7.71474362104543E-12   0.00000000000000E+00   0.00000000000000E+00  -4.11921151090975E-11
      7.33518555995466E-34  -4.11921151090975E-11   5.43859845351670E-18   0.00000000000000E+00   0.00000000000000E+00
      0.00000000000000E+00   0.00000000000000E+00   0.00000000000000E+00   0.00000000000000E+00   0.00000000000000E+00
      3.63313089650640E-18   0.00000000000000E+00   0.00000000000000E+00   0.00000000000000E+00   0.00000000000000E+00
      3.89608172578293E-20  -1.40368611432123E-33   3.89608172578279E-20  -1.36696112404976E-17   3.03708000000000E-04
      3.03707992199246E-04   0.00000000000000E+00   0.00000000000000E+00   4.11921150701366E-11   6.70167558325764E-34
      4.11921150701366E-11   4.59788189047451E-18
      7.67490933333333E-03
      0.00000000000000E+00   9.72339979874035E-12   0.00000000000000E+00   0.00000000000000E+00  -5.19170110802547E-11
      7.12835061662349E-34  -5.19170110802547E-11   5.43855914358149E-18   0.00000000000000E+00   0.00000000000000E+00
      0.00000000000000E+00   0.00000000000000E+00   0.00000000000000E+00   0.00000000000000E+00   0.00000000000000E+00
      3.63216111704583E-18   0.00000000000000E+00   0.00000000000000E+00   0.00000000000000E+00   0.00000000000000E+00
      6.65181717440765E-20  -1.39501477166101E-33   6.65181717440751E-20  -1.36695838244767E-17   3.83745466666667E-04
      3.83745456834887E-04   0.00000000000000E+00   0.00000000000000E+00   5.19170110137365E-11   6.82179709998660E-34
      5.19170110137365E-11   4.59886356384936E-18
      9.43573360000000E-03
      0.00000000000000E+00   1.19208542162328E-11   0.00000000000000E+00   0.00000000000000E+00  -6.36499647421369E-11
      7.03462594585226E-34  -6.36499647421369E-11   5.43851590331870E-18   0.00000000000000E+00   0.00000000000000E+00
      0.00000000000000E+00   0.00000000000000E+00   0.00000000000000E+00   0.00000000000000E+00   0.00000000000000E+00
      3.63109438107675E-18   0.00000000000000E+00   0.00000000000000E+00   0.00000000000000E+00   0.00000000000000E+00
      6.61931823335040E-20  -1.40833342233231E-33   6.61931823335026E-20  -1.36695537201619E-17   4.71786680000000E-04
      4.71786667946276E-04   0.00000000000000E+00   0.00000000000000E+00   6.36499646759437E-11   7.04870827747087E-34
      6.36499646759437E-11   4.59994343576647E-18
      1.13726402933333E-02
      0.00000000000000E+00   1.43233877269388E-11   0.00000000000000E+00   0.00000000000000E+00  -7.64777828085242E-11
      7.67976630689472E-34  -7.64777828085242E-11   5.43846833983542E-18   0.00000000000000E+00   0.00000000000000E+00
      0.00000000000000E+00   0.00000000000000E+00   0.00000000000000E+00   0.00000000000000E+00   0.00000000000000E+00
      3.62992099741304E-18   0.00000000000000E+00   0.00000000000000E+00   0.00000000000000E+00   0.00000000000000E+00
      4.61885974969820E-20  -1.46003141454445E-33   4.61885974969806E-20  -1.36695206698424E-17   5.68632014666667E-04
      5.68632000183642E-04   0.00000000000000E+00   0.00000000000000E+00   7.64777827623355E-11   6.92054783854982E-34
      7.64777827623355E-11   4.60113133259395E-18
      1.35032376560000E-02
      0.00000000000000E+00   1.69483597711884E-11   0.00000000000000E+00   0.00000000000000E+00  -9.04930674922994E-11
      7.19418123684441E-34  -9.04930674922994E-11   5.43841602097835E-18   0.00000000000000E+00   0.00000000000000E+00
      0.00000000000000E+00   0.00000000000000E+00   0.00000000000000E+00   0.00000000000000E+00   0.00000000000000E+00
      3.62863030667527E-18   0.00000000000000E+00   0.00000000000000E+00   0.00000000000000E+00   0.00000000000000E+00
      6.76093147415349E-19  -1.43116969899024E-33   6.76093147415348E-19  -1.36694843923458E-17   6.75161882800000E-04
      6.75161865662783E-04   0.00000000000000E+00   0.00000000000000E+00   9.04930668162063E-11   7.11751575305802E-34
      9.04930668162063E-11   4.60243806469216E-18
      1.58468947549333E-02
      0.00000000000000E+00   1.98141628463557E-11   0.00000000000000E+00   0.00000000000000E+00  -1.05794212063668E-10
      6.99518394268523E-34  -1.05794212063668E-10   5.43835847141405E-18   0.00000000000000E+00   0.00000000000000E+00
      0.00000000000000E+00   0.00000000000000E+00   0.00000000000000E+00   0.00000000000000E+00   0.00000000000000E+00
      3.62721058466180E-18   0.00000000000000E+00   0.00000000000000E+00   0.00000000000000E+00   0.00000000000000E+00
      1.63192664336879E-19  -1.37083059441819E-33   1.63192664336878E-19  -1.36694445811693E-17   7.92344737746667E-04
      7.92344717711719E-04   0.00000000000000E+00   0.00000000000000E+00   1.05794211900475E-10   6.71312200149665E-34
      1.05794211900475E-10   4.60387552509350E-18
      1.84249175637600E-02
      0.00000000000000E+00   2.29403331915423E-11   0.00000000000000E+00   0.00000000000000E+00  -1.22485304370201E-10
      7.51015575840901E-34  -1.22485304370201E-10   5.43829516831793E-18   0.00000000000000E+00   0.00000000000000E+00
      0.00000000000000E+00   0.00000000000000E+00   0.00000000000000E+00   0.00000000000000E+00   0.00000000000000E+00
      3.62564893609536E-18   0.00000000000000E+00   0.00000000000000E+00   0.00000000000000E+00   0.00000000000000E+00
      7.13521037468504E-18  -1.45807894502937E-33   7.13521037468504E-18  -1.36694009025209E-17   9.21245878188001E-04
      9.21245854992082E-04   0.00000000000000E+00   0.00000000000000E+00   1.22485297234990E-10   7.07063369188464E-34
      1.22485297234990E-10   4.60545679810762E-18
      2.12607426534693E-02
      0.00000000000000E+00   2.63473906480354E-11   0.00000000000000E+00   0.00000000000000E+00  -1.40675841350934E-10
      7.70523236003114E-34  -1.40675841350934E-10   5.43822553663390E-18   0.00000000000000E+00   0.00000000000000E+00
      0.00000000000000E+00   0.00000000000000E+00   0.00000000000000E+00   0.00000000000000E+00   0.00000000000000E+00
      3.62393117779103E-18   0.00000000000000E+00   0.00000000000000E+00   0.00000000000000E+00   0.00000000000000E+00
      2.60348281754952E-19  -1.43781612182623E-33   2.60348281754950E-19  -1.36693529932817E-17   1.06303713267347E-03
      1.06303710603256E-03   0.00000000000000E+00   0.00000000000000E+00   1.40675841090586E-10   6.67292885823119E-34
      1.40675841090586E-10   4.60719627885673E-18
      2.43801502521496E-02
      0.00000000000000E+00   3.00567970544269E-11   0.00000000000000E+00   0.00000000000000E+00  -1.60480385892933E-10
      7.51042528614812E-34  -1.60480385892933E-10   5.43814894386151E-18   0.00000000000000E+00   0.00000000000000E+00
      0.00000000000000E+00   0.00000000000000E+00   0.00000000000000E+00   0.00000000000000E+00   0.00000000000000E+00
      3.62204171019629E-18   0.00000000000000E+00   0.00000000000000E+00   0.00000000000000E+00   0.00000000000000E+00
      4.36310430058256E-19  -1.39939222075220E-33   4.36310430058255E-19  -1.36693004589054E-17   1.21900751260748E-03
      1.21900748221589E-03   0.00000000000000E+00   0.00000000000000E+00   1.60480385456623E-10   6.48349692137390E-34
      1.60480385456623E-10   4.60910980484750E-18
      2.78114986106979E-02
      0.00000000000000E+00   3.40908400669458E-11   0.00000000000000E+00   0.00000000000000E+00  -1.82017872830161E-10
      7.47660247818475E-34  -1.82017872830161E-10   5.43806469432428E-18   0.00000000000000E+00   0.00000000000000E+00
      0.00000000000000E+00   0.00000000000000E+00   0.00000000000000E+00   0.00000000000000E+00   0.00000000000000E+00
      3.61996337615168E-18   0.00000000000000E+00   0.00000000000000E+00   0.00000000000000E+00   0.00000000000000E+00
      6.02043244219475E-19  -1.42903990328495E-33   6.02043244219473E-19  -1.36692428712756E-17   1.39057493053490E-03
      1.39057489606438E-03   0.00000000000000E+00   0.00000000000000E+00   1.82017872228118E-10   6.81379655466475E-34
      1.82017872228118E-10   4.61121480079962E-18
      3.15859818051010E-02
      0.00000000000000E+00   3.84724926448604E-11   0.00000000000000E+00   0.00000000000000E+00  -2.05410767238617E-10
      7.04217845538132E-34  -2.05410767238617E-10   5.43797202286677E-18   0.00000000000000E+00   0.00000000000000E+00
      0.00000000000000E+00   0.00000000000000E+00   0.00000000000000E+00   0.00000000000000E+00   0.00000000000000E+00
      3.61767730560643E-18   0.00000000000000E+00   0.00000000000000E+00   0.00000000000000E+00   0.00000000000000E+00
      8.95759471495525E-19  -1.40446742869495E-33   8.95759471495524E-19  -1.36691797665510E-17   1.57929909025505E-03
      1.57929905135415E-03   0.00000000000000E+00   0.00000000000000E+00   2.05410766342858E-10   7.00249583156818E-34
      2.05410766342858E-10   4.61353043807776E-18
      3.57379133189445E-02
      0.00000000000000E+00   4.32251343762753E-11   0.00000000000000E+00   0.00000000000000E+00  -2.30783876729797E-10
      7.06447615170047E-34  -2.30783876729797E-10   5.43787008792477E-18   0.00000000000000E+00   0.00000000000000E+00
      0.00000000000000E+00   0.00000000000000E+00   0.00000000000000E+00   0.00000000000000E+00   0.00000000000000E+00
      3.61516274490123E-18   0.00000000000000E+00   0.00000000000000E+00   0.00000000000000E+00   0.00000000000000E+00
      1.23208206957312E-18  -1.42097658679096E-33   1.23208206957311E-18  -1.36691106430362E-17   1.78689566594722E-03
      1.78689562224084E-03   0.00000000000000E+00   0.00000000000000E+00   2.30783875497715E-10   7.14528971620911E-34
      2.30783875497715E-10   4.61607781021016E-18
      4.03050379841723E-02
      0.00000000000000E+00   4.83723316787607E-11   0.00000000000000E+00   0.00000000000000E+00  -2.58262812281726E-10
      7.25193836390764E-34  -2.58262812281726E-10   5.43775796390596E-18   0.00000000000000E+00   0.00000000000000E+00
      0.00000000000000E+00   0.00000000000000E+00   0.00000000000000E+00   0.00000000000000E+00   0.00000000000000E+00
      3.61239686909197E-18   0.00000000000000E+00   0.00000000000000E+00   0.00000000000000E+00   0.00000000000000E+00
      1.90338157251883E-18  -1.41068543485350E-33   1.90338157251883E-18  -1.36690349591294E-17   2.01525189920861E-03
      2.01525185029781E-03   0.00000000000000E+00   0.00000000000000E+00   2.58262810378345E-10   6.85491598462739E-34
      2.58262810378345E-10   4.61888012613147E-18
      4.53288751159228E-02
      0.00000000000000E+00   5.39374405904886E-11   0.00000000000000E+00   0.00000000000000E+00  -2.87972030387707E-10
      7.28584032668886E-34  -2.87972030387707E-10   5.43763463281253E-18   0.00000000000000E+00   0.00000000000000E+00
      0.00000000000000E+00   0.00000000000000E+00   0.00000000000000E+00   0.00000000000000E+00   0.00000000000000E+00
      3.60935457564025E-18   0.00000000000000E+00   0.00000000000000E+00   0.00000000000000E+00   0.00000000000000E+00
      2.70450471832925E-18  -1.42571277059672E-33   2.70450471832925E-18  -1.36689521314082E-17   2.26644375579614E-03
      2.26644370125838E-03   0.00000000000000E+00   0.00000000000000E+00   2.87972027683203E-10   6.97128737927832E-34
      2.87972027683203E-10   4.62196292295545E-18
      5.08550959608485E-02
      0.00000000000000E+00   5.99431232116169E-11   0.00000000000000E+00   0.00000000000000E+00  -3.20032386246162E-10
      7.44430397275905E-34  -3.20032386246162E-10   5.43749897503160E-18   0.00000000000000E+00   0.00000000000000E+00
      0.00000000000000E+00   0.00000000000000E+00   0.00000000000000E+00   0.00000000000000E+00   0.00000000000000E+00
      3.60600825763713E-18   0.00000000000000E+00   0.00000000000000E+00   0.00000000000000E+00   0.00000000000000E+00
      3.91313517488664E-18  -1.36779341636938E-33   3.91313517488664E-18  -1.36688615329429E-17   2.54275479804242E-03
      2.54275473743228E-03   0.00000000000000E+00   0.00000000000000E+00   3.20032382333027E-10   6.23363019093476E-34
      3.20032382333027E-10   4.62535430027417E-18
      5.69339388902666E-02
      0.00000000000000E+00   6.64108241107866E-11   0.00000000000000E+00   0.00000000000000E+00  -3.54558138431812E-10
      7.74368767549096E-34  -3.54558138431812E-10   5.43734975921012E-18   0.00000000000000E+00   0.00000000000000E+00
      0.00000000000000E+00   0.00000000000000E+00   0.00000000000000E+00   0.00000000000000E+00   0.00000000000000E+00
      3.60232755453672E-18   0.00000000000000E+00   0.00000000000000E+00   0.00000000000000E+00   0.00000000000000E+00
     -2.20735398279536E-17  -1.44780795359791E-33  -2.20735398279536E-17  -1.36687624919252E-17   2.84669694451333E-03
      2.84669687736365E-03   0.00000000000000E+00   0.00000000000000E+00   3.54558160505352E-10   6.73439186048812E-34
      3.54558160505352E-10   4.62908517817838E-18
      6.36206661126266E-02
      0.00000000000000E+00   7.33601030770321E-11   0.00000000000000E+00   0.00000000000000E+00  -3.91653398730548E-10
      7.30671058533202E-34  -3.91653398730548E-10   5.43718563112356E-18   0.00000000000000E+00   0.00000000000000E+00
      0.00000000000000E+00   0.00000000000000E+00   0.00000000000000E+00   0.00000000000000E+00   0.00000000000000E+00
      3.59827907816310E-18   0.00000000000000E+00   0.00000000000000E+00   0.00000000000000E+00   0.00000000000000E+00
      8.20714157499736E-18  -1.39032830378857E-33   8.20714157499736E-18  -1.36686542907053E-17   3.18103330563133E-03
      3.18103323145523E-03   0.00000000000000E+00   0.00000000000000E+00   3.91653390523406E-10   6.59657245255369E-34
      3.91653390523406E-10   4.63318958141866E-18
      7.09760660572226E-02
      0.00000000000000E+00   8.08078257870961E-11   0.00000000000000E+00   0.00000000000000E+00  -4.31407843768153E-10
      7.21536603756407E-34  -4.31407843768153E-10   5.43700510144060E-18   0.00000000000000E+00   0.00000000000000E+00
      0.00000000000000E+00   0.00000000000000E+00   0.00000000000000E+00   0.00000000000000E+00   0.00000000000000E+00
      3.59382611162083E-18   0.00000000000000E+00   0.00000000000000E+00   0.00000000000000E+00   0.00000000000000E+00
      1.30016004588922E-17  -1.33690314245334E-33   1.30016004588922E-17  -1.36685361654816E-17   3.54880330286113E-03
      3.54880322115467E-03   0.00000000000000E+00   0.00000000000000E+00   4.31407830766552E-10   6.15366538696934E-34
      4.31407830766552E-10   4.63770495242018E-18
      7.90670059962782E-02
      0.00000000000000E+00   8.87672186681343E-11   0.00000000000000E+00   0.00000000000000E+00  -4.73891740192112E-10
      7.67856243500432E-34  -4.73891740192112E-10   5.43680653227343E-18   0.00000000000000E+00   0.00000000000000E+00
      0.00000000000000E+00   0.00000000000000E+00   0.00000000000000E+00   0.00000000000000E+00   0.00000000000000E+00
      3.58892827839514E-18   0.00000000000000E+00   0.00000000000000E+00   0.00000000000000E+00   0.00000000000000E+00
      2.52575254198820E-17  -1.37002943161971E-33   2.52575254198820E-17  -1.36684073067539E-17   3.95335029981391E-03
      3.95335021005978E-03   0.00000000000000E+00   0.00000000000000E+00   4.73891714934586E-10   6.02173188119281E-34
      4.73891714934586E-10   4.64267249608531E-18
      8.79670399292394E-02
      0.00000000000000E+00   9.72468083657495E-11   0.00000000000000E+00   0.00000000000000E+00  -5.19150233110315E-10
      7.46776137699043E-34  -5.19150233110315E-10   5.43658812239386E-18   0.00000000000000E+00   0.00000000000000E+00
      0.00000000000000E+00   0.00000000000000E+00   0.00000000000000E+00   0.00000000000000E+00   0.00000000000000E+00
      3.58354117871786E-18   0.00000000000000E+00   0.00000000000000E+00   0.00000000000000E+00   0.00000000000000E+00
      2.46542881421055E-17  -1.36355607837078E-33   2.46542881421055E-17  -1.36682668607712E-17   4.39835199646197E-03
      4.39835189813423E-03   0.00000000000000E+00   0.00000000000000E+00   5.19150208456027E-10   6.16779940671737E-34
      5.19150208456027E-10   4.64813755965948E-18
      9.77570772554967E-02
      0.00000000000000E+00   1.06249249742346E-10   0.00000000000000E+00   0.00000000000000E+00  -5.67197014177962E-10
      7.07287504771489E-34  -5.67197014177962E-10   5.43634789098375E-18   0.00000000000000E+00   0.00000000000000E+00
      0.00000000000000E+00   0.00000000000000E+00   0.00000000000000E+00   0.00000000000000E+00   0.00000000000000E+00
      3.57761599000151E-18   0.00000000000000E+00   0.00000000000000E+00   0.00000000000000E+00   0.00000000000000E+00
      2.77782509572854E-17  -1.32261777980964E-33   2.77782509572854E-17  -1.36681139322651E-17   4.88785386277484E-03
      4.88785375534492E-03   0.00000000000000E+00   0.00000000000000E+00   5.67196986399711E-10   6.15330275038155E-34
      5.67196986399711E-10   4.65415005127990E-18
      1.07757077255497E-01
      0.00000000000000E+00   1.15103067494194E-10   0.00000000000000E+00   0.00000000000000E+00  -6.14448147855383E-10
      7.45457669512605E-34  -6.14448147855383E-10   5.43610252830472E-18   0.00000000000000E+00   0.00000000000000E+00
      0.00000000000000E+00   0.00000000000000E+00   0.00000000000000E+00   0.00000000000000E+00   0.00000000000000E+00
      3.57156439276372E-18   0.00000000000000E+00   0.00000000000000E+00   0.00000000000000E+00   0.00000000000000E+00
      4.08662065997123E-17  -1.31166850656076E-33   4.08662065997123E-17  -1.36679594028124E-17   5.38785386277483E-03
      5.38785374639307E-03   0.00000000000000E+00   0.00000000000000E+00   6.14448106989175E-10   5.66210837048154E-34
      6.14448106989175E-10   4.66029248174395E-18
      1.17757077255497E-01
      0.00000000000000E+00   1.23621973804314E-10   0.00000000000000E+00   0.00000000000000E+00  -6.59909661772476E-10
      7.61413675299046E-34  -6.59909661772476E-10   5.43585718653255E-18   0.00000000000000E+00   0.00000000000000E+00
      0.00000000000000E+00   0.00000000000000E+00   0.00000000000000E+00   0.00000000000000E+00   0.00000000000000E+00
      3.56551346365096E-18   0.00000000000000E+00   0.00000000000000E+00   0.00000000000000E+00   0.00000000000000E+00
      6.04463592995875E-17  -1.36092852275422E-33   6.04463592995875E-17  -1.36678065589153E-17   5.88785386277483E-03
      5.88785373777989E-03   0.00000000000000E+00   0.00000000000000E+00   6.59909601326117E-10   5.99514847455173E-34
      6.59909601326117E-10   4.66643590873183E-18
      1.27757077255497E-01
      0.00000000000000E+00   1.31816395012873E-10   0.00000000000000E+00   0.00000000000000E+00  -7.03637336329982E-10
      6.95155473677525E-34  -7.03637336329982E-10   5.43561186548107E-18   0.00000000000000E+00   0.00000000000000E+00
      0.00000000000000E+00   0.00000000000000E+00   0.00000000000000E+00   0.00000000000000E+00   0.00000000000000E+00
      3.55946319729674E-18   0.00000000000000E+00   0.00000000000000E+00   0.00000000000000E+00   0.00000000000000E+00
      4.31042139594016E-17  -1.25653924734374E-33   4.31042139594016E-17  -1.36676553894701E-17   6.38785386277483E-03
      6.38785372949486E-03   0.00000000000000E+00   0.00000000000000E+00   7.03637293225768E-10   5.61383773666211E-34
      7.03637293225768E-10   4.67258032669235E-18
      1.37757077255497E-01
      0.00000000000000E+00   1.39696620870429E-10   0.00000000000000E+00   0.00000000000000E+00  -7.45686446738483E-10
      7.21632383330651E-34  -7.45686446738483E-10   5.43536656496398E-18   0.00000000000000E+00   0.00000000000000E+00
      0.00000000000000E+00   0.00000000000000E+00   0.00000000000000E+00   0.00000000000000E+00   0.00000000000000E+00
      3.55341358838116E-18   0.00000000000000E+00   0.00000000000000E+00   0.00000000000000E+00   0.00000000000000E+00
      3.97045924830226E-17  -1.30511779589664E-33   3.97045924830226E-17  -1.36675058834621E-17   6.88785386277483E-03
      6.88785372152754E-03   0.00000000000000E+00   0.00000000000000E+00   7.45686407033891E-10   5.83485412565987E-34
      7.45686407033891E-10   4.67872573011697E-18
      1.47757077255497E-01
      0.00000000000000E+00   1.47272810032916E-10   0.00000000000000E+00   0.00000000000000E+00  -7.86111395617895E-10
      7.29578510718220E-34  -7.86111395617895E-10   5.43512128479485E-18   0.00000000000000E+00   0.00000000000000E+00
      0.00000000000000E+00   0.00000000000000E+00   0.00000000000000E+00   0.00000000000000E+00   0.00000000000000E+00
      3.54736463162649E-18   0.00000000000000E+00   0.00000000000000E+00   0.00000000000000E+00   0.00000000000000E+00
      3.90808238042763E-17  -1.28211090618348E-33   3.90808238042763E-17  -1.36673580299449E-17   7.38785386277483E-03
      7.38785371386765E-03   0.00000000000000E+00   0.00000000000000E+00   7.86111356537070E-10   5.52532395465257E-34
      7.86111356537070E-10   4.68487211352356E-18
      1.57757077255497E-01
      0.00000000000000E+00   1.54554942961777E-10   0.00000000000000E+00   0.00000000000000E+00  -8.24965670561561E-10
      7.59939477553561E-34  -8.24965670561561E-10   5.43487602478778E-18   0.00000000000000E+00   0.00000000000000E+00
      0.00000000000000E+00   0.00000000000000E+00   0.00000000000000E+00   0.00000000000000E+00   0.00000000000000E+00
      3.54131632179770E-18   0.00000000000000E+00   0.00000000000000E+00   0.00000000000000E+00   0.00000000000000E+00
      3.84283439901573E-17  -1.30305145101209E-33   3.84283439901573E-17  -1.36672118180544E-17   7.88785386277484E-03
      7.88785370650512E-03   0.00000000000000E+00   0.00000000000000E+00   8.24965632133217E-10   5.43111973458526E-34
      8.24965632133217E-10   4.69101947146896E-18
      1.67757077255497E-01
      0.00000000000000E+00   1.61552814858985E-10   0.00000000000000E+00   0.00000000000000E+00  -8.62301732691067E-10
      7.56865864439823E-34  -8.62301732691067E-10   5.43463078475697E-18   0.00000000000000E+00   0.00000000000000E+00
      0.00000000000000E+00   0.00000000000000E+00   0.00000000000000E+00   0.00000000000000E+00   0.00000000000000E+00
      3.53526865369086E-18   0.00000000000000E+00   0.00000000000000E+00   0.00000000000000E+00   0.00000000000000E+00
      3.78136691851922E-17  -1.32911166296146E-33   3.78136691851922E-17  -1.36670672369773E-17   8.38785386277484E-03
      8.38785369943005E-03   0.00000000000000E+00   0.00000000000000E+00   8.62301694877398E-10   5.72245798521641E-34
      8.62301694877398E-10   4.69716779852944E-18
      1.77757077255497E-01
      0.00000000000000E+00   1.68275995632158E-10   0.00000000000000E+00   0.00000000000000E+00  -8.98170940482185E-10
      7.48771014360315E-34  -8.98170940482185E-10   5.43438556451727E-18   0.00000000000000E+00   0.00000000000000E+00
      0.00000000000000E+00   0.00000000000000E+00   0.00000000000000E+00   0.00000000000000E+00   0.00000000000000E+00
      3.52922162214922E-18   0.00000000000000E+00   0.00000000000000E+00   0.00000000000000E+00   0.00000000000000E+00
      3.71681248032705E-17  -1.25626933826235E-33   3.71681248032705E-17  -1.36669242759892E-17   8.88785386277484E-03
      8.88785369263274E-03   0.00000000000000E+00   0.00000000000000E+00   8.98170903314061E-10   5.07498323902032E-34
      8.98170903314061E-10   4.70331708932280E-18
      1.87757077255497E-01
      0.00000000000000E+00   1.74733891909382E-10   0.00000000000000E+00   0.00000000000000E+00  -9.32623511626532E-10
      7.31489089102286E-34  -9.32623511626532E-10   5.43414036388413E-18   0.00000000000000E+00   0.00000000000000E+00
      0.00000000000000E+00   0.00000000000000E+00   0.00000000000000E+00   0.00000000000000E+00   0.00000000000000E+00
      3.52317522203918E-18   0.00000000000000E+00   0.00000000000000E+00   0.00000000000000E+00   0.00000000000000E+00
      3.65260283352146E-17  -1.24287481170764E-33   3.65260283352146E-17  -1.36667829244153E-17   9.38785386277484E-03
      9.38785368610372E-03   0.00000000000000E+00   0.00000000000000E+00   9.32623475100504E-10   5.11385722605357E-34
      9.32623475100504E-10   4.70946733849202E-18
      1.97757077255497E-01
      0.00000000000000E+00   1.80935597889634E-10   0.00000000000000E+00   0.00000000000000E+00  -9.65708374939936E-10