DF-ISE text

Info {
  version   = 1.0
  type      = xyplot
  datasets  = [
    "time"
    "source OuterVoltage" "source InnerVoltage" "source QuasiFermiPotential" "source DisplacementCurrent" "source eCurrent"
    "source hCurrent" "source TotalCurrent" "source Charge" "gate OuterVoltage" "gate InnerVoltage"
    "gate QuasiFermiPotential" "gate DisplacementCurrent" "gate eCurrent" "gate hCurrent" "gate TotalCurrent"
    "gate Charge" "substrate OuterVoltage" "substrate InnerVoltage" "substrate QuasiFermiPotential" "substrate DisplacementCurrent"
    "substrate eCurrent" "substrate hCurrent" "substrate TotalCurrent" "substrate Charge" "drain OuterVoltage"
    "drain InnerVoltage" "drain QuasiFermiPotential" "drain DisplacementCurrent" "drain eCurrent" "drain hCurrent"
    "drain TotalCurrent" "drain Charge" ]
  functions = [
    Time
    OuterVoltage InnerVoltage QuasiFermiPotential DisplacementCurrent eCurrent
    hCurrent TotalCurrent Charge OuterVoltage InnerVoltage
    QuasiFermiPotential DisplacementCurrent eCurrent hCurrent TotalCurrent
    Charge OuterVoltage InnerVoltage QuasiFermiPotential DisplacementCurrent
    eCurrent hCurrent TotalCurrent Charge OuterVoltage
    InnerVoltage QuasiFermiPotential DisplacementCurrent eCurrent hCurrent
    TotalCurrent Charge ]
}

Data {
      0.00000000000000E+00
      0.00000000000000E+00   0.00000000000000E+00   0.00000000000000E+00   0.00000000000000E+00   9.45456859265402E-21
      5.00367235499305E-34   9.45456859265452E-21   4.99270750841054E-18   0.00000000000000E+00   0.00000000000000E+00
      0.00000000000000E+00   0.00000000000000E+00   0.00000000000000E+00   0.00000000000000E+00   0.00000000000000E+00
      4.22157186537035E-18   0.00000000000000E+00   0.00000000000000E+00   0.00000000000000E+00   0.00000000000000E+00
     -1.46290384054258E-20  -1.00602662672671E-33  -1.46290384054268E-20  -1.34255073180163E-17   0.00000000000000E+00
      0.00000000000000E+00   0.00000000000000E+00   0.00000000000000E+00   5.17446981277177E-21   5.05659391227403E-34
      5.17446981277228E-21   4.21122794423539E-18
      0.00000000000000E+00
      0.00000000000000E+00   0.00000000000000E+00   0.00000000000000E+00   0.00000000000000E+00  -1.60806235193518E-19
      4.85974585745534E-34  -1.60806235193517E-19   4.99099428312645E-18   0.00000000000000E+00   0.00000000000000E+00
      0.00000000000000E+00   0.00000000000000E+00   0.00000000000000E+00   0.00000000000000E+00   0.00000000000000E+00
      4.21503177523279E-18   0.00000000000000E+00   0.00000000000000E+00   0.00000000000000E+00   0.00000000000000E+00
      1.19458066570464E-19  -9.82810196708290E-34   1.19458066570463E-19  -1.34158770098774E-17   0.00000000000000E+00
      0.00000000000000E+00   0.00000000000000E+00   0.00000000000000E+00   4.13481686230541E-20   4.96835610962756E-34
      4.13481686230546E-20   4.20985095151822E-18
      1.00000000000000E-03
      0.00000000000000E+00   1.14458934279018E-12   0.00000000000000E+00   0.00000000000000E+00  -5.28427750036824E-12
      4.88873913160338E-34  -5.28427750036824E-12   4.99098177788950E-18   0.00000000000000E+00   0.00000000000000E+00
      0.00000000000000E+00   0.00000000000000E+00   0.00000000000000E+00   0.00000000000000E+00   0.00000000000000E+00
      4.21442403149352E-18   0.00000000000000E+00   0.00000000000000E+00   0.00000000000000E+00   0.00000000000000E+00
     -2.35280287993840E-19  -9.66607989408481E-34  -2.35280287993841E-19  -1.34158501555594E-17   5.00000000000000E-05
      4.99999988521343E-05   0.00000000000000E+00   0.00000000000000E+00   5.28427773564853E-12   4.77734076248142E-34
      5.28427773564853E-12   4.21044434617640E-18
      2.09333333333333E-03
      0.00000000000000E+00   2.39232032546441E-12   0.00000000000000E+00   0.00000000000000E+00  -1.10446612282838E-11
      4.89209841233907E-34  -1.10446612282838E-11   4.99096810564801E-18   0.00000000000000E+00   0.00000000000000E+00
      0.00000000000000E+00   0.00000000000000E+00   0.00000000000000E+00   0.00000000000000E+00   0.00000000000000E+00
      4.21375957392697E-18   0.00000000000000E+00   0.00000000000000E+00   0.00000000000000E+00   0.00000000000000E+00
     -5.07261099010987E-20  -1.00014423800840E-33  -5.07261099010997E-20  -1.34158208176110E-17   1.04666666666667E-04
      1.04666664267516E-04   0.00000000000000E+00   0.00000000000000E+00   1.10446612790099E-11   5.10934396774496E-34
      1.10446612790099E-11   4.21109313803598E-18
      3.29600000000000E-03
      0.00000000000000E+00   3.76019351821878E-12   0.00000000000000E+00   0.00000000000000E+00  -1.73597511974738E-11
      4.88623513194361E-34  -1.73597511974738E-11   4.99095306636524E-18   0.00000000000000E+00   0.00000000000000E+00
      0.00000000000000E+00   0.00000000000000E+00   0.00000000000000E+00   0.00000000000000E+00   0.00000000000000E+00
      4.21302868135809E-18   0.00000000000000E+00   0.00000000000000E+00   0.00000000000000E+00   0.00000000000000E+00
      1.76475850307776E-19  -9.90040169183358E-34   1.76475850307775E-19  -1.34157885733232E-17   1.64800000000000E-04
      1.64799996229059E-04   0.00000000000000E+00   0.00000000000000E+00   1.73597510209979E-11   5.01416655988996E-34
      1.73597510209979E-11   4.21180682559983E-18
      4.61893333333333E-03
      0.00000000000000E+00   5.25918108698040E-12   0.00000000000000E+00   0.00000000000000E+00  -2.42800534853179E-11
      4.56105148341199E-34  -2.42800534853179E-11   4.99093652337592E-18   0.00000000000000E+00   0.00000000000000E+00
      0.00000000000000E+00   0.00000000000000E+00   0.00000000000000E+00   0.00000000000000E+00   0.00000000000000E+00
      4.21222471253209E-18   0.00000000000000E+00   0.00000000000000E+00   0.00000000000000E+00   0.00000000000000E+00
     -1.00623323470470E-19  -9.48705557352643E-34  -1.00623323470471E-19  -1.34157531378019E-17   2.30946666666667E-04
      2.30946661392477E-04   0.00000000000000E+00   0.00000000000000E+00   2.42800535859412E-11   4.92600409011443E-34
      2.42800535859412E-11   4.21259190189387E-18
      6.07416000000000E-03
      0.00000000000000E+00   6.90109164081881E-12   0.00000000000000E+00   0.00000000000000E+00  -3.18601595779473E-11
      4.86529343421376E-34  -3.18601595779473E-11   4.99091832635631E-18   0.00000000000000E+00   0.00000000000000E+00
      0.00000000000000E+00   0.00000000000000E+00   0.00000000000000E+00   0.00000000000000E+00   0.00000000000000E+00
      4.21134036253597E-18   0.00000000000000E+00   0.00000000000000E+00   0.00000000000000E+00   0.00000000000000E+00
      2.46226961910278E-19  -1.00098137272952E-33   2.46226961910277E-19  -1.34157141988605E-17   3.03708000000000E-04
      3.03707993079215E-04   0.00000000000000E+00   0.00000000000000E+00   3.18601593317204E-11   5.14452029308139E-34
      3.18601593317204E-11   4.21345550996826E-18
      7.67490933333333E-03
      0.00000000000000E+00   8.69866809032670E-12   0.00000000000000E+00   0.00000000000000E+00  -4.01589118086692E-11
      4.99761975851073E-34  -4.01589118086692E-11   4.99089830996000E-18   0.00000000000000E+00   0.00000000000000E+00
      0.00000000000000E+00   0.00000000000000E+00   0.00000000000000E+00   0.00000000000000E+00   0.00000000000000E+00
      4.21036759652952E-18   0.00000000000000E+00   0.00000000000000E+00   0.00000000000000E+00   0.00000000000000E+00
      4.58744177236988E-20  -1.00276647899840E-33   4.58744177236978E-20  -1.34156714145397E-17   3.83745466666667E-04
      3.83745457943163E-04   0.00000000000000E+00   0.00000000000000E+00   4.01589117627948E-11   5.03004503147325E-34
      4.01589117627948E-11   4.21440550805016E-18
      9.43573360000000E-03
      0.00000000000000E+00   1.06656313832090E-11   0.00000000000000E+00   0.00000000000000E+00  -4.92395698262369E-11
      4.99224515007517E-34  -4.92395698262369E-11   4.99087629231771E-18   0.00000000000000E+00   0.00000000000000E+00
      0.00000000000000E+00   0.00000000000000E+00   0.00000000000000E+00   0.00000000000000E+00   0.00000000000000E+00
      4.20929757686936E-18   0.00000000000000E+00   0.00000000000000E+00   0.00000000000000E+00   0.00000000000000E+00
      2.53749353132222E-19  -9.81195403860241E-34   2.53749353132221E-19  -1.34156244104296E-17   4.71786680000000E-04
      4.71786669303922E-04   0.00000000000000E+00   0.00000000000000E+00   4.92395695724876E-11   4.81970888852724E-34
      4.92395695724876E-11   4.21545054124256E-18
      1.13726402933333E-02
      0.00000000000000E+00   1.28166761307241E-11   0.00000000000000E+00   0.00000000000000E+00  -5.91699422137533E-11
      4.94147654073205E-34  -5.91699422137533E-11   4.99085207338748E-18   0.00000000000000E+00   0.00000000000000E+00
      0.00000000000000E+00   0.00000000000000E+00   0.00000000000000E+00   0.00000000000000E+00   0.00000000000000E+00
      4.20812058296805E-18   0.00000000000000E+00   0.00000000000000E+00   0.00000000000000E+00   0.00000000000000E+00
      9.77339335048913E-20  -9.78014683317871E-34   9.77339335048903E-20  -1.34155727767859E-17   5.68632014666667E-04
      5.68632001813411E-04   0.00000000000000E+00   0.00000000000000E+00   5.91699421160194E-11   4.83867029244665E-34
      5.91699421160194E-11   4.21660012043037E-18
      1.35032376560000E-02
      0.00000000000000E+00   1.51674919287834E-11   0.00000000000000E+00   0.00000000000000E+00  -7.00224786218044E-11
      4.73333683602059E-34  -7.00224786218044E-11   4.99082543314027E-18   0.00000000000000E+00   0.00000000000000E+00
      0.00000000000000E+00   0.00000000000000E+00   0.00000000000000E+00   0.00000000000000E+00   0.00000000000000E+00
      4.20682592316997E-18   0.00000000000000E+00   0.00000000000000E+00   0.00000000000000E+00   0.00000000000000E+00
      2.10047158946029E-19  -9.53940492086250E-34   2.10047158946028E-19  -1.34155160654332E-17   6.75161882800000E-04
      6.75161867589228E-04   0.00000000000000E+00   0.00000000000000E+00   7.00224784117572E-11   4.80606808484190E-34
      7.00224784117572E-11   4.21786470912294E-18
      1.58468947549333E-02
      0.00000000000000E+00   1.77347994398125E-11   0.00000000000000E+00   0.00000000000000E+00  -8.18743004401141E-11
      5.01513842251698E-34  -8.18743004401141E-11   4.99079612956489E-18   0.00000000000000E+00   0.00000000000000E+00
      0.00000000000000E+00   0.00000000000000E+00   0.00000000000000E+00   0.00000000000000E+00   0.00000000000000E+00
      4.20540183784772E-18   0.00000000000000E+00   0.00000000000000E+00   0.00000000000000E+00   0.00000000000000E+00
      3.05350007225681E-19  -9.90540520670361E-34   3.05350007225680E-19  -1.34154537864473E-17   7.92344737746667E-04
      7.92344719961263E-04   0.00000000000000E+00   0.00000000000000E+00   8.18743001347641E-11   4.89026678418661E-34
      8.18743001347641E-11   4.21925581903466E-18
      1.84249175637600E-02
      0.00000000000000E+00   2.05363066571618E-11   0.00000000000000E+00   0.00000000000000E+00  -9.48071569543283E-11
      4.80346342583841E-34  -9.48071569543283E-11   4.99076389647395E-18   0.00000000000000E+00   0.00000000000000E+00
      0.00000000000000E+00   0.00000000000000E+00   0.00000000000000E+00   0.00000000000000E+00   0.00000000000000E+00
      4.20383539284989E-18   0.00000000000000E+00   0.00000000000000E+00   0.00000000000000E+00   0.00000000000000E+00
      3.22816747100829E-19  -9.60319986051014E-34   3.22816747100828E-19  -1.34153854046131E-17   9.21245878188001E-04
      9.21245857593094E-04   0.00000000000000E+00   0.00000000000000E+00   9.48071566315117E-11   4.79973643467172E-34
      9.48071566315117E-11   4.22078611528934E-18
      2.12607426534693E-02
      0.00000000000000E+00   2.35907220257837E-11   0.00000000000000E+00   0.00000000000000E+00  -1.08907281870021E-10
      4.83140589296905E-34  -1.08907281870021E-10   4.99072844109136E-18   0.00000000000000E+00   0.00000000000000E+00
      0.00000000000000E+00   0.00000000000000E+00   0.00000000000000E+00   0.00000000000000E+00   0.00000000000000E+00
      4.20211236234350E-18   0.00000000000000E+00   0.00000000000000E+00   0.00000000000000E+00   0.00000000000000E+00
      7.15036277938960E-19  -9.70657861055176E-34   7.15036277938959E-19  -1.34153103356588E-17   1.06303713267347E-03
      1.06303710901544E-03   0.00000000000000E+00   0.00000000000000E+00   1.08907281154985E-10   4.87517271758270E-34
      1.08907281154985E-10   4.22246953222395E-18
      2.43801502521496E-02
      0.00000000000000E+00   2.69176418230900E-11   0.00000000000000E+00   0.00000000000000E+00  -1.24265125744058E-10
      4.75775568168891E-34  -1.24265125744058E-10   4.99068944139962E-18   0.00000000000000E+00   0.00000000000000E+00
      0.00000000000000E+00   0.00000000000000E+00   0.00000000000000E+00   0.00000000000000E+00   0.00000000000000E+00
      4.20021709999885E-18   0.00000000000000E+00   0.00000000000000E+00   0.00000000000000E+00   0.00000000000000E+00
      7.29613585605533E-19  -9.62736072572304E-34   7.29613585605532E-19  -1.34152279422652E-17   1.21900751260748E-03
      1.21900748561306E-03   0.00000000000000E+00   0.00000000000000E+00   1.24265125014444E-10   4.86960504403413E-34
      1.24265125014444E-10   4.22432140086671E-18
      2.78114986106979E-02
      0.00000000000000E+00   3.05375020498043E-11   0.00000000000000E+00   0.00000000000000E+00  -1.40974936971366E-10
      4.91556078086492E-34  -1.40974936971366E-10   4.99064654322302E-18   0.00000000000000E+00   0.00000000000000E+00
      0.00000000000000E+00   0.00000000000000E+00   0.00000000000000E+00   0.00000000000000E+00   0.00000000000000E+00
      4.19813239736574E-18   0.00000000000000E+00   0.00000000000000E+00   0.00000000000000E+00   0.00000000000000E+00
      1.13081722859193E-18  -9.64154590347586E-34   1.13081722859193E-18  -1.34151375298669E-17   1.39057493053490E-03
      1.39057489991030E-03   0.00000000000000E+00   0.00000000000000E+00   1.40974935840549E-10   4.72598512261094E-34
      1.40974935840549E-10   4.22635858927811E-18
      3.15859818051010E-02
      0.00000000000000E+00   3.44714330091279E-11   0.00000000000000E+00   0.00000000000000E+00  -1.59134152315359E-10
      4.77810170391917E-34  -1.59134152315359E-10   4.99059935702060E-18   0.00000000000000E+00   0.00000000000000E+00
      0.00000000000000E+00   0.00000000000000E+00   0.00000000000000E+00   0.00000000000000E+00   0.00000000000000E+00
      4.19583932817088E-18   0.00000000000000E+00   0.00000000000000E+00   0.00000000000000E+00   0.00000000000000E+00
      1.68621022867522E-18  -9.53603684171192E-34   1.68621022867522E-18  -1.34150383422532E-17   1.57929909025505E-03
      1.57929905568532E-03   0.00000000000000E+00   0.00000000000000E+00   1.59134150629149E-10   4.75793513779275E-34
      1.59134150629149E-10   4.22859965706171E-18
      3.57379133189445E-02
      0.00000000000000E+00   3.87410788974344E-11   0.00000000000000E+00   0.00000000000000E+00  -1.78842563546592E-10
      4.90702841266587E-34  -1.78842563546592E-10   4.99054745436020E-18   0.00000000000000E+00   0.00000000000000E+00
      0.00000000000000E+00   0.00000000000000E+00   0.00000000000000E+00   0.00000000000000E+00   0.00000000000000E+00
      4.19331707714769E-18   0.00000000000000E+00   0.00000000000000E+00   0.00000000000000E+00   0.00000000000000E+00
      2.53735674230661E-18  -9.52358843622300E-34   2.53735674230661E-18  -1.34149295569988E-17   1.78689566594722E-03
      1.78689562709569E-03   0.00000000000000E+00   0.00000000000000E+00   1.78842561009235E-10   4.61656002355712E-34
      1.78842561009235E-10   4.23106502549092E-18
      4.03050379841723E-02
      0.00000000000000E+00   4.33683616320886E-11   0.00000000000000E+00   0.00000000000000E+00  -2.00201220411063E-10
      4.91937714081802E-34  -2.00201220411063E-10   4.99049036404197E-18   0.00000000000000E+00   0.00000000000000E+00
      0.00000000000000E+00   0.00000000000000E+00   0.00000000000000E+00   0.00000000000000E+00   0.00000000000000E+00
      4.19054275186734E-18   0.00000000000000E+00   0.00000000000000E+00   0.00000000000000E+00   0.00000000000000E+00
      3.51977708597492E-18  -9.54231213843189E-34   3.51977708597492E-18  -1.34148102807536E-17   2.01525189920861E-03
      2.01525185571662E-03   0.00000000000000E+00   0.00000000000000E+00   2.00201216891286E-10   4.62293499761386E-34
      2.00201216891286E-10   4.23377716484432E-18
      4.53288751159228E-02
      0.00000000000000E+00   4.83751768891019E-11   0.00000000000000E+00   0.00000000000000E+00  -2.23311002921238E-10
      4.90796145065919E-34  -2.23311002921238E-10   4.99042756783658E-18   0.00000000000000E+00   0.00000000000000E+00
      0.00000000000000E+00   0.00000000000000E+00   0.00000000000000E+00   0.00000000000000E+00   0.00000000000000E+00
      4.18749117590392E-18   0.00000000000000E+00   0.00000000000000E+00   0.00000000000000E+00   0.00000000000000E+00
      5.31181181032174E-18  -9.58019932481937E-34   5.31181181032174E-18  -1.34146795444527E-17   2.26644375579614E-03
      2.26644370728309E-03   0.00000000000000E+00   0.00000000000000E+00   2.23310997609426E-10   4.67223787416018E-34
      2.23310997609426E-10   4.23676080071217E-18
      5.08550959608485E-02
      0.00000000000000E+00   5.37829879088479E-11   0.00000000000000E+00   0.00000000000000E+00  -2.48270851224205E-10
      4.84523221321162E-34  -2.48270851224205E-10   4.99035849580021E-18   0.00000000000000E+00   0.00000000000000E+00
      0.00000000000000E+00   0.00000000000000E+00   0.00000000000000E+00   0.00000000000000E+00   0.00000000000000E+00
      4.18413466147441E-18   0.00000000000000E+00   0.00000000000000E+00   0.00000000000000E+00   0.00000000000000E+00
      7.25451301125369E-18  -9.22774649277909E-34   7.25451301125369E-18  -1.34145362984868E-17   2.54275479804242E-03
      2.54275474410617E-03   0.00000000000000E+00   0.00000000000000E+00   2.48270843969692E-10   4.38251427956749E-34
      2.48270843969692E-10   4.24004314121211E-18
      5.69339388902666E-02
      0.00000000000000E+00   5.96124056344066E-11   0.00000000000000E+00   0.00000000000000E+00  -2.75175578572021E-10
      4.89252677406750E-34  -2.75175578572021E-10   4.99028252112425E-18   0.00000000000000E+00   0.00000000000000E+00
      0.00000000000000E+00   0.00000000000000E+00   0.00000000000000E+00   0.00000000000000E+00   0.00000000000000E+00
      4.18044275954760E-18   0.00000000000000E+00   0.00000000000000E+00   0.00000000000000E+00   0.00000000000000E+00
      1.11575977377394E-17  -9.45446527430930E-34   1.11575977377394E-17  -1.34143794079357E-17   2.84669694451333E-03
      2.84669688473108E-03   0.00000000000000E+00   0.00000000000000E+00   2.75175567414423E-10   4.56193850024181E-34
      2.75175567414423E-10   4.24365412726383E-18
      6.36206661126266E-02
      0.00000000000000E+00   6.58825386913710E-11   0.00000000000000E+00   0.00000000000000E+00  -3.04113164329535E-10
      4.69802428862594E-34  -3.04113164329535E-10   4.99019895447444E-18   0.00000000000000E+00   0.00000000000000E+00
      0.00000000000000E+00   0.00000000000000E+00   0.00000000000000E+00   0.00000000000000E+00   0.00000000000000E+00
      4.17638198522287E-18   0.00000000000000E+00   0.00000000000000E+00   0.00000000000000E+00   0.00000000000000E+00
      1.63078487987854E-17  -9.10180189525806E-34   1.63078487987854E-17  -1.34142076479974E-17   3.18103330563133E-03
      3.18103323956111E-03   0.00000000000000E+00   0.00000000000000E+00   3.04113148021686E-10   4.40377760663212E-34
      3.04113148021686E-10   4.24762670830003E-18
      7.09760660572226E-02
      0.00000000000000E+00   7.26103603151940E-11   0.00000000000000E+00   0.00000000000000E+00  -3.35161573598810E-10
      4.93877861345223E-34  -3.35161573598810E-10   4.99010703776812E-18   0.00000000000000E+00   0.00000000000000E+00
      0.00000000000000E+00   0.00000000000000E+00   0.00000000000000E+00   0.00000000000000E+00   0.00000000000000E+00
      4.17191551590990E-18   0.00000000000000E+00   0.00000000000000E+00   0.00000000000000E+00   0.00000000000000E+00
      2.37655437160152E-17  -9.40568473724750E-34   2.37655437160152E-17  -1.34140196996994E-17   3.54880330286113E-03
      3.54880323004395E-03   0.00000000000000E+00   0.00000000000000E+00   3.35161549833266E-10   4.46690612379526E-34
      3.35161549833266E-10   4.25199714602138E-18
      7.90670059962782E-02
      0.00000000000000E+00   7.98098494935566E-11   0.00000000000000E+00   0.00000000000000E+00  -3.68385000944370E-10
      4.80214260260050E-34  -3.68385000944370E-10   4.99000593733469E-18   0.00000000000000E+00   0.00000000000000E+00
      0.00000000000000E+00   0.00000000000000E+00   0.00000000000000E+00   0.00000000000000E+00   0.00000000000000E+00
      4.16700285966309E-18   0.00000000000000E+00   0.00000000000000E+00   0.00000000000000E+00   0.00000000000000E+00
      3.46690418024318E-17  -9.23197886357517E-34   3.46690418024318E-17  -1.34138141460971E-17   3.95335029981391E-03
      3.95335021977676E-03   0.00000000000000E+00   0.00000000000000E+00   3.68384966275328E-10   4.42983626097466E-34
      3.68384966275328E-10   4.25680534909932E-18
      8.79670399292394E-02
      0.00000000000000E+00   8.74911036806029E-11   0.00000000000000E+00   0.00000000000000E+00  -4.03829566293965E-10
      4.86365131435841E-34  -4.03829566293965E-10   4.98989473639812E-18   0.00000000000000E+00   0.00000000000000E+00
      0.00000000000000E+00   0.00000000000000E+00   0.00000000000000E+00   0.00000000000000E+00   0.00000000000000E+00
      4.16159949071968E-18   0.00000000000000E+00   0.00000000000000E+00   0.00000000000000E+00   0.00000000000000E+00
      5.00584209463179E-17  -9.16123549577852E-34   5.00584209463179E-17  -1.34135894691372E-17   4.39835199646197E-03
      4.39835190872171E-03   0.00000000000000E+00   0.00000000000000E+00   4.03829516235545E-10   4.29758418142011E-34
      4.03829516235545E-10   4.26209524201943E-18
      9.77570772554967E-02
      0.00000000000000E+00   9.56592175257736E-11   0.00000000000000E+00   0.00000000000000E+00  -4.41518326824259E-10
      4.82296483017395E-34  -4.41518326824259E-10   4.98977242681578E-18   0.00000000000000E+00   0.00000000000000E+00
      0.00000000000000E+00   0.00000000000000E+00   0.00000000000000E+00   0.00000000000000E+00   0.00000000000000E+00
      4.15565644908675E-18   0.00000000000000E+00   0.00000000000000E+00   0.00000000000000E+00   0.00000000000000E+00
      7.27091327126391E-17  -9.00339621231665E-34   7.27091327126391E-17  -1.34133440475287E-17   4.88785386277484E-03
      4.88785376684321E-03   0.00000000000000E+00   0.00000000000000E+00   4.41518254115127E-10   4.18043138214269E-34
      4.41518254115127E-10   4.26791517162620E-18
      1.07757077255497E-01
      0.00000000000000E+00   1.03706400826870E-10   0.00000000000000E+00   0.00000000000000E+00  -4.78646595820990E-10
      4.91096434632029E-34  -4.78646595820990E-10   4.98964750638280E-18   0.00000000000000E+00   0.00000000000000E+00
      0.00000000000000E+00   0.00000000000000E+00   0.00000000000000E+00   0.00000000000000E+00   0.00000000000000E+00
      4.14958666244968E-18   0.00000000000000E+00   0.00000000000000E+00   0.00000000000000E+00   0.00000000000000E+00
      8.41129136438150E-17  -9.01029440097056E-34   8.41129136438150E-17  -1.34130952149273E-17   5.38785386277483E-03
      5.38785375877312E-03   0.00000000000000E+00   0.00000000000000E+00   4.78646511708076E-10   4.09933005465027E-34
      4.78646511708076E-10   4.27386104609477E-18
      1.17757077255497E-01
      0.00000000000000E+00   1.11462793849459E-10   0.00000000000000E+00   0.00000000000000E+00  -5.14430942388447E-10
      5.12839927580945E-34  -5.14430942388447E-10   4.98952259823203E-18   0.00000000000000E+00   0.00000000000000E+00
      0.00000000000000E+00   0.00000000000000E+00   0.00000000000000E+00   0.00000000000000E+00   0.00000000000000E+00
      4.14351759042926E-18   0.00000000000000E+00   0.00000000000000E+00   0.00000000000000E+00   0.00000000000000E+00
      8.43072025956697E-17  -9.15983550084443E-34   8.43072025956697E-17  -1.34128482428541E-17   5.88785386277483E-03
      5.88785375099459E-03   0.00000000000000E+00   0.00000000000000E+00   5.14430858081244E-10   4.03143622503496E-34
      5.14430858081244E-10   4.27980805419287E-18
      1.27757077255497E-01
      0.00000000000000E+00   1.18936949634695E-10   0.00000000000000E+00   0.00000000000000E+00  -5.48910704547616E-10
      4.90865646457028E-34  -5.48910704547616E-10   4.98939770224541E-18   0.00000000000000E+00   0.00000000000000E+00
      0.00000000000000E+00   0.00000000000000E+00   0.00000000000000E+00   0.00000000000000E+00   0.00000000000000E+00
      4.13744922732025E-18   0.00000000000000E+00   0.00000000000000E+00   0.00000000000000E+00   0.00000000000000E+00
      7.77739368719077E-17  -8.93226839774178E-34   7.77739368719077E-17  -1.34126031198049E-17   6.38785386277483E-03
      6.38785374349913E-03   0.00000000000000E+00   0.00000000000000E+00   5.48910626773679E-10   4.02361193317149E-34
      5.48910626773679E-10   4.28575619023920E-18
      1.37757077255497E-01
      0.00000000000000E+00   1.26137271429336E-10   0.00000000000000E+00   0.00000000000000E+00  -5.82125013197298E-10
      4.76330924868314E-34  -5.82125013197298E-10   4.98927281830369E-18   0.00000000000000E+00   0.00000000000000E+00
      0.00000000000000E+00   0.00000000000000E+00   0.00000000000000E+00   0.00000000000000E+00   0.00000000000000E+00
      4.13138156739702E-18   0.00000000000000E+00   0.00000000000000E+00   0.00000000000000E+00   0.00000000000000E+00
      7.34226433453738E-17  -8.76271537438122E-34   7.34226433453738E-17  -1.34123598342672E-17   6.88785386277483E-03
      6.88785373627827E-03   0.00000000000000E+00   0.00000000000000E+00   5.82124939774655E-10   3.99940612569807E-34
      5.82124939774655E-10   4.29170544856645E-18
      1.47757077255497E-01
      0.00000000000000E+00   1.33072089769725E-10   0.00000000000000E+00   0.00000000000000E+00  -6.14112500685310E-10
      5.06713056847529E-34  -6.14112500685310E-10   4.98914794628730E-18   0.00000000000000E+00   0.00000000000000E+00
      0.00000000000000E+00   0.00000000000000E+00   0.00000000000000E+00   0.00000000000000E+00   0.00000000000000E+00
      4.12531460496174E-18   0.00000000000000E+00   0.00000000000000E+00   0.00000000000000E+00   0.00000000000000E+00
      7.65767265156810E-17  -8.86199765165084E-34   7.65767265156810E-17  -1.34121183747770E-17   7.38785386277483E-03
      7.38785372932364E-03   0.00000000000000E+00   0.00000000000000E+00   6.14112424108584E-10   3.79486708317554E-34
      6.14112424108584E-10   4.29765582352798E-18
      1.57757077255497E-01
      0.00000000000000E+00   1.39749613279250E-10   0.00000000000000E+00   0.00000000000000E+00  -6.44911157121347E-10
      4.86382377593931E-34  -6.44911157121347E-10   4.98902308607730E-18   0.00000000000000E+00   0.00000000000000E+00
      0.00000000000000E+00   0.00000000000000E+00   0.00000000000000E+00   0.00000000000000E+00   0.00000000000000E+00
      4.11924833439788E-18   0.00000000000000E+00   0.00000000000000E+00   0.00000000000000E+00   0.00000000000000E+00
      7.41042824697356E-17  -8.59787456814443E-34   7.41042824697356E-17  -1.34118787299998E-17   7.88785386277484E-03
      7.88785372262702E-03   0.00000000000000E+00   0.00000000000000E+00   6.44911083017065E-10   3.73405079220512E-34
      6.44911083017065E-10   4.30360730952465E-18
      1.67757077255497E-01
      0.00000000000000E+00   1.46177891493094E-10   0.00000000000000E+00   0.00000000000000E+00  -6.74558334439621E-10
      5.02821189787472E-34  -6.74558334439621E-10   4.98889823755483E-18   0.00000000000000E+00   0.00000000000000E+00
      0.00000000000000E+00   0.00000000000000E+00   0.00000000000000E+00   0.00000000000000E+00   0.00000000000000E+00
      4.11318275012302E-18   0.00000000000000E+00   0.00000000000000E+00   0.00000000000000E+00   0.00000000000000E+00
      6.16810824272115E-17  -8.69373501521370E-34   6.16810824272115E-17  -1.34116408886606E-17   8.38785386277484E-03
      8.38785371618033E-03   0.00000000000000E+00   0.00000000000000E+00   6.74558272758538E-10   3.66552311733898E-34
      6.74558272758538E-10   4.30955990098278E-18
      1.77757077255497E-01
      0.00000000000000E+00   1.52364830712384E-10   0.00000000000000E+00   0.00000000000000E+00  -7.03090663865770E-10
      4.83735674617568E-34  -7.03090663865770E-10   4.98877340060129E-18   0.00000000000000E+00   0.00000000000000E+00
      0.00000000000000E+00   0.00000000000000E+00   0.00000000000000E+00   0.00000000000000E+00   0.00000000000000E+00
      4.10711784660333E-18   0.00000000000000E+00   0.00000000000000E+00   0.00000000000000E+00   0.00000000000000E+00
      5.41763727806920E-17  -8.52980027713320E-34   5.41763727806920E-17  -1.34114048395677E-17   8.88785386277484E-03
      8.88785370997565E-03   0.00000000000000E+00   0.00000000000000E+00   7.03090609689397E-10   3.69244353095751E-34
      7.03090609689397E-10   4.31551359236320E-18
      1.87757077255497E-01
      0.00000000000000E+00   1.58318167216145E-10   0.00000000000000E+00   0.00000000000000E+00  -7.30544016183208E-10
      4.87014126399135E-34  -7.30544016183208E-10   4.98864857509868E-18   0.00000000000000E+00   0.00000000000000E+00
      0.00000000000000E+00   0.00000000000000E+00   0.00000000000000E+00   0.00000000000000E+00   0.00000000000000E+00
      4.10105361835494E-18   0.00000000000000E+00   0.00000000000000E+00   0.00000000000000E+00   0.00000000000000E+00
      6.61323199122273E-17  -8.45386264812317E-34   6.61323199122273E-17  -1.34111705716122E-17   9.38785386277484E-03
      9.38785370400521E-03   0.00000000000000E+00   0.00000000000000E+00   7.30543950050888E-10   3.58372138413181E-34
      7.30543950050888E-10   4.32146837815858E-18
      1.97757077255497E-01
      0.00000000000000E+00   1.64045466714606E-10   0.00000000000000E+00   0.00000000000000E+00  -7.56953477961814E-10