DF-ISE text

Info {
  version   = 1.0
  type      = xyplot
  datasets  = [
    "time"
    "source OuterVoltage" "source InnerVoltage" "source QuasiFermiPotential" "source DisplacementCurrent" "source eCurrent"
    "source hCurrent" "source TotalCurrent" "source Charge" "gate OuterVoltage" "gate InnerVoltage"
    "gate QuasiFermiPotential" "gate DisplacementCurrent" "gate eCurrent" "gate hCurrent" "gate TotalCurrent"
    "gate Charge" "substrate OuterVoltage" "substrate InnerVoltage" "substrate QuasiFermiPotential" "substrate DisplacementCurrent"
    "substrate eCurrent" "substrate hCurrent" "substrate TotalCurrent" "substrate Charge" "drain OuterVoltage"
    "drain InnerVoltage" "drain QuasiFermiPotential" "drain DisplacementCurrent" "drain eCurrent" "drain hCurrent"
    "drain TotalCurrent" "drain Charge" ]
  functions = [
    Time
    OuterVoltage InnerVoltage QuasiFermiPotential DisplacementCurrent eCurrent
    hCurrent TotalCurrent Charge OuterVoltage InnerVoltage
    QuasiFermiPotential DisplacementCurrent eCurrent hCurrent TotalCurrent
    Charge OuterVoltage InnerVoltage QuasiFermiPotential DisplacementCurrent
    eCurrent hCurrent TotalCurrent Charge OuterVoltage
    InnerVoltage QuasiFermiPotential DisplacementCurrent eCurrent hCurrent
    TotalCurrent Charge ]
}

Data {
      0.00000000000000E+00
      0.00000000000000E+00   0.00000000000000E+00   0.00000000000000E+00   0.00000000000000E+00   3.58219236603910E-21
      4.53379117245456E-34   3.58219236603955E-21   4.76904736598777E-18   0.00000000000000E+00   0.00000000000000E+00
      0.00000000000000E+00   0.00000000000000E+00   0.00000000000000E+00   0.00000000000000E+00   0.00000000000000E+00
      1.92293946448951E-18   0.00000000000000E+00   0.00000000000000E+00   0.00000000000000E+00   0.00000000000000E+00
     -1.04034802217714E-20  -9.27213446135347E-34  -1.04034802217723E-20  -1.11395857702882E-17   0.00000000000000E+00
      0.00000000000000E+00   0.00000000000000E+00   0.00000000000000E+00   6.82128785573229E-21   4.73834328889890E-34
      6.82128785573277E-21   4.44759893981088E-18
      0.00000000000000E+00
      0.00000000000000E+00   0.00000000000000E+00   0.00000000000000E+00   0.00000000000000E+00  -8.18632857172493E-21
      4.83327778986071E-34  -8.18632857172445E-21   4.76756558061069E-18   0.00000000000000E+00   0.00000000000000E+00
      0.00000000000000E+00   0.00000000000000E+00   0.00000000000000E+00   0.00000000000000E+00   0.00000000000000E+00
      1.91824922061516E-18   0.00000000000000E+00   0.00000000000000E+00   0.00000000000000E+00   0.00000000000000E+00
      1.89871293008223E-19  -9.52606428430830E-34   1.89871293008222E-19  -1.11321849022506E-17   0.00000000000000E+00
      0.00000000000000E+00   0.00000000000000E+00   0.00000000000000E+00  -1.81684964436498E-19   4.69278649444759E-34
     -1.81684964436497E-19   4.44637010102475E-18
      1.00000000000000E-03
      0.00000000000000E+00   3.54082455017806E-12   0.00000000000000E+00   0.00000000000000E+00  -1.60248167903943E-11
      5.02740342548452E-34  -1.60248167903943E-11   4.76753897111823E-18   0.00000000000000E+00   0.00000000000000E+00
      0.00000000000000E+00   0.00000000000000E+00   0.00000000000000E+00   0.00000000000000E+00   0.00000000000000E+00
      1.91758722733740E-18   0.00000000000000E+00   0.00000000000000E+00   0.00000000000000E+00   0.00000000000000E+00
     -9.63611220641601E-20  -9.50956324505986E-34  -9.63611220641611E-20  -1.11321436883779E-17   5.00000000000000E-05
      4.99999964403429E-05   0.00000000000000E+00   0.00000000000000E+00   1.60248168867554E-11   4.48215981957534E-34
      1.60248168867554E-11   4.44701748992227E-18
      2.09333333333333E-03
      0.00000000000000E+00   7.39969692876439E-12   0.00000000000000E+00   0.00000000000000E+00  -3.34889609194999E-11
      4.93313177233158E-34  -3.34889609194999E-11   4.76750987851964E-18   0.00000000000000E+00   0.00000000000000E+00
      0.00000000000000E+00   0.00000000000000E+00   0.00000000000000E+00   0.00000000000000E+00   0.00000000000000E+00
      1.91686345809706E-18   0.00000000000000E+00   0.00000000000000E+00   0.00000000000000E+00   0.00000000000000E+00
     -2.82974226583457E-19  -9.51156021104960E-34  -2.82974226583458E-19  -1.11320986544931E-17   1.04666666666667E-04
      1.04666659227632E-04   0.00000000000000E+00   0.00000000000000E+00   3.34889612024741E-11   4.57842843871803E-34
      3.34889612024741E-11   4.44772531787636E-18
      3.29600000000000E-03
      0.00000000000000E+00   1.16287980671696E-11   0.00000000000000E+00   0.00000000000000E+00  -5.26286085467621E-11
      4.91988689803441E-34  -5.26286085467621E-11   4.76747787720265E-18   0.00000000000000E+00   0.00000000000000E+00
      0.00000000000000E+00   0.00000000000000E+00   0.00000000000000E+00   0.00000000000000E+00   0.00000000000000E+00
      1.91606732408078E-18   0.00000000000000E+00   0.00000000000000E+00   0.00000000000000E+00   0.00000000000000E+00
      5.54265559626686E-20  -9.40382952705322E-34   5.54265559626677E-20  -1.11320491493111E-17   1.64800000000000E-04
      1.64799988309400E-04   0.00000000000000E+00   0.00000000000000E+00   5.26286084913356E-11   4.48394262901882E-34
      5.26286084913356E-11   4.44850394802768E-18
      4.61893333333333E-03
      0.00000000000000E+00   1.62614089993106E-11   0.00000000000000E+00   0.00000000000000E+00  -7.35943877310188E-11
      4.87214159345820E-34  -7.35943877310188E-11   4.76744267641091E-18   0.00000000000000E+00   0.00000000000000E+00
      0.00000000000000E+00   0.00000000000000E+00   0.00000000000000E+00   0.00000000000000E+00   0.00000000000000E+00
      1.91519159134901E-18   0.00000000000000E+00   0.00000000000000E+00   0.00000000000000E+00   0.00000000000000E+00
      4.32627528599416E-19  -9.43226639699714E-34   4.32627528599415E-19  -1.11319947324139E-17   2.30946666666667E-04
      2.30946650318839E-04   0.00000000000000E+00   0.00000000000000E+00   7.35943872983912E-11   4.56012480353894E-34
      7.35943872983912E-11   4.44936046465403E-18
      6.07416000000000E-03
      0.00000000000000E+00   2.13334506392651E-11   0.00000000000000E+00   0.00000000000000E+00  -9.65487404140379E-11
      4.72617222123863E-34  -9.65487404140379E-11   4.76740395633633E-18   0.00000000000000E+00   0.00000000000000E+00
      0.00000000000000E+00   0.00000000000000E+00   0.00000000000000E+00   0.00000000000000E+00   0.00000000000000E+00
      1.91422830309697E-18   0.00000000000000E+00   0.00000000000000E+00   0.00000000000000E+00   0.00000000000000E+00
     -1.05312275299215E-19  -9.13534819992753E-34  -1.05312275299215E-19  -1.11319349207424E-17   3.03708000000000E-04
      3.03707978553188E-04   0.00000000000000E+00   0.00000000000000E+00   9.65487405193502E-11   4.40917597868890E-34
      9.65487405193502E-11   4.45030266130913E-18
      7.67490933333333E-03
      0.00000000000000E+00   2.68835222685902E-11   0.00000000000000E+00   0.00000000000000E+00  -1.21666275662808E-10
      4.76943035609105E-34  -1.21666275662808E-10   4.76736136521895E-18   0.00000000000000E+00   0.00000000000000E+00
      0.00000000000000E+00   0.00000000000000E+00   0.00000000000000E+00   0.00000000000000E+00   0.00000000000000E+00
      1.91316870747757E-18   0.00000000000000E+00   0.00000000000000E+00   0.00000000000000E+00   0.00000000000000E+00
     -1.79458239751267E-19  -9.26792781517489E-34  -1.79458239751268E-19  -1.11318691846232E-17   3.83745466666667E-04
      3.83745439640318E-04   0.00000000000000E+00   0.00000000000000E+00   1.21666275842267E-10   4.49849745908384E-34
      1.21666275842267E-10   4.45133911192665E-18
      9.43573360000000E-03
      0.00000000000000E+00   3.29529566431647E-11   0.00000000000000E+00   0.00000000000000E+00  -1.49134084470613E-10
      4.84729735319418E-34  -1.49134084470613E-10   4.76731451615803E-18   0.00000000000000E+00   0.00000000000000E+00
      0.00000000000000E+00   0.00000000000000E+00   0.00000000000000E+00   0.00000000000000E+00   0.00000000000000E+00
      1.91200317822953E-18   0.00000000000000E+00   0.00000000000000E+00   0.00000000000000E+00   0.00000000000000E+00
      1.06447034098456E-19  -9.29176725890889E-34   1.06447034098455E-19  -1.11317969434589E-17   4.71786680000000E-04
      4.71786646872003E-04   0.00000000000000E+00   0.00000000000000E+00   1.49134084364166E-10   4.44446990571472E-34
      1.49134084364166E-10   4.45247924907135E-18
      1.13726402933333E-02
      0.00000000000000E+00   3.95859372045677E-11   0.00000000000000E+00   0.00000000000000E+00  -1.79151941043443E-10
      5.09525587889219E-34  -1.79151941043443E-10   4.76726298360506E-18   0.00000000000000E+00   0.00000000000000E+00
      0.00000000000000E+00   0.00000000000000E+00   0.00000000000000E+00   0.00000000000000E+00   0.00000000000000E+00
      1.91072112739499E-18   0.00000000000000E+00   0.00000000000000E+00   0.00000000000000E+00   0.00000000000000E+00
      8.00339005076382E-20  -9.61642666342571E-34   8.00339005076373E-20  -1.11317175610593E-17   5.68632014666667E-04
      5.68631974870498E-04   0.00000000000000E+00   0.00000000000000E+00   1.79151940963409E-10   4.52117078453351E-34
      1.79151940963409E-10   4.45373345005926E-18
      1.35032376560000E-02
      0.00000000000000E+00   4.68294254790013E-11   0.00000000000000E+00   0.00000000000000E+00  -2.11932343692574E-10
      4.99157068056993E-34  -2.11932343692574E-10   4.76720629950796E-18   0.00000000000000E+00   0.00000000000000E+00
      0.00000000000000E+00   0.00000000000000E+00   0.00000000000000E+00   0.00000000000000E+00   0.00000000000000E+00
      1.90931090934209E-18   0.00000000000000E+00   0.00000000000000E+00   0.00000000000000E+00   0.00000000000000E+00
      7.68117728381740E-20  -9.33341400024998E-34   7.68117728381731E-20  -1.11316303405938E-17   6.75161882800000E-04
      6.75161835721906E-04   0.00000000000000E+00   0.00000000000000E+00   2.11932343615762E-10   4.34184331968005E-34
      2.11932343615762E-10   4.45511313174374E-18
      1.58468947549333E-02
      0.00000000000000E+00   5.47331811956609E-11   0.00000000000000E+00   0.00000000000000E+00  -2.47700328426369E-10
      4.83677457694473E-34  -2.47700328426369E-10   4.76714394907127E-18   0.00000000000000E+00   0.00000000000000E+00
      0.00000000000000E+00   0.00000000000000E+00   0.00000000000000E+00   0.00000000000000E+00   0.00000000000000E+00
      1.90775971522858E-18   0.00000000000000E+00   0.00000000000000E+00   0.00000000000000E+00   0.00000000000000E+00
      8.56598439488229E-19  -9.13586589030445E-34   8.56598439488228E-19  -1.11315345191434E-17   7.92344737746667E-04
      7.92344682722885E-04   0.00000000000000E+00   0.00000000000000E+00   2.47700327569771E-10   4.29909131335973E-34
      2.47700327569771E-10   4.45663085484354E-18
      1.84249175637600E-02
      0.00000000000000E+00   6.33496599454570E-11   0.00000000000000E+00   0.00000000000000E+00  -2.86693007561520E-10
      4.71548705102865E-34  -2.86693007561520E-10   4.76707536609462E-18   0.00000000000000E+00   0.00000000000000E+00
      0.00000000000000E+00   0.00000000000000E+00   0.00000000000000E+00   0.00000000000000E+00   0.00000000000000E+00
      1.90605345695913E-18   0.00000000000000E+00   0.00000000000000E+00   0.00000000000000E+00   0.00000000000000E+00
      9.28586733125298E-19  -8.98262342559440E-34   9.28586733125297E-19  -1.11314292618351E-17   9.21245878188001E-04
      9.21245814502063E-04   0.00000000000000E+00   0.00000000000000E+00   2.86693006632933E-10   4.26713637456574E-34
      2.86693006632933E-10   4.45830043878134E-18
      2.12607426534693E-02
      0.00000000000000E+00   7.27337673870040E-11   0.00000000000000E+00   0.00000000000000E+00  -3.29158748811877E-10
      4.82591293424131E-34  -3.29158748811877E-10   4.76699992784759E-18   0.00000000000000E+00   0.00000000000000E+00
      0.00000000000000E+00   0.00000000000000E+00   0.00000000000000E+00   0.00000000000000E+00   0.00000000000000E+00
      1.90417663959500E-18   0.00000000000000E+00   0.00000000000000E+00   0.00000000000000E+00   0.00000000000000E+00
      1.24234143736200E-18  -8.84889314629345E-34   1.24234143736200E-18  -1.11313136555414E-17   1.06303713267347E-03
      1.06303705955368E-03   0.00000000000000E+00   0.00000000000000E+00   3.29158747569535E-10   4.02298021205213E-34
      3.29158747569535E-10   4.46013708809882E-18
      2.43801502521496E-02
      0.00000000000000E+00   8.29426519399277E-11   0.00000000000000E+00   0.00000000000000E+00  -3.75355901170561E-10
      4.69606060029540E-34  -3.75355901170561E-10   4.76691694943531E-18   0.00000000000000E+00   0.00000000000000E+00
      0.00000000000000E+00   0.00000000000000E+00   0.00000000000000E+00   0.00000000000000E+00   0.00000000000000E+00
      1.90211222107813E-18   0.00000000000000E+00   0.00000000000000E+00   0.00000000000000E+00   0.00000000000000E+00
      1.19793736499651E-17  -8.97760874743405E-34   1.19793736499651E-17  -1.11311867021405E-17   1.21900751260748E-03
      1.21900742922472E-03   0.00000000000000E+00   0.00000000000000E+00   3.75355889191187E-10   4.28154814713866E-34
      3.75355889191187E-10   4.46215753162707E-18
      2.78114986106979E-02
      0.00000000000000E+00   9.40352831737861E-11   0.00000000000000E+00   0.00000000000000E+00  -4.25551024634151E-10
      4.80016068217156E-34  -4.25551024634151E-10   4.76682567760387E-18   0.00000000000000E+00   0.00000000000000E+00
      0.00000000000000E+00   0.00000000000000E+00   0.00000000000000E+00   0.00000000000000E+00   0.00000000000000E+00
      1.89984145799047E-18   0.00000000000000E+00   0.00000000000000E+00   0.00000000000000E+00   0.00000000000000E+00
      2.46694775530138E-18  -8.94319212662120E-34   2.46694775530138E-18  -1.11310473112976E-17   1.39057493053490E-03
      1.39057483600074E-03   0.00000000000000E+00   0.00000000000000E+00   4.25551022167203E-10   4.14303144444964E-34
      4.25551022167203E-10   4.46438017570328E-18
      3.15859818051010E-02
      0.00000000000000E+00   1.06071954971777E-10   0.00000000000000E+00   0.00000000000000E+00  -4.80016537113333E-10
      5.20607330741907E-34  -4.80016537113333E-10   4.76672528393146E-18   0.00000000000000E+00   0.00000000000000E+00
      0.00000000000000E+00   0.00000000000000E+00   0.00000000000000E+00   0.00000000000000E+00   0.00000000000000E+00
      1.89734373600560E-18   0.00000000000000E+00   0.00000000000000E+00   0.00000000000000E+00   0.00000000000000E+00
      3.15508780477279E-18  -9.40902985807602E-34   3.15508780477279E-18  -1.11308942928126E-17   1.57929909025505E-03
      1.57929898362050E-03   0.00000000000000E+00   0.00000000000000E+00   4.80016533958246E-10   4.20295655065695E-34
      4.80016533958246E-10   4.46682527287550E-18
      3.57379133189445E-02
      0.00000000000000E+00   1.19113518408502E-10   0.00000000000000E+00   0.00000000000000E+00  -5.39027428004826E-10
      5.20678195884316E-34  -5.39027428004826E-10   4.76661485734284E-18   0.00000000000000E+00   0.00000000000000E+00
      0.00000000000000E+00   0.00000000000000E+00   0.00000000000000E+00   0.00000000000000E+00   0.00000000000000E+00
      1.89459638349828E-18   0.00000000000000E+00   0.00000000000000E+00   0.00000000000000E+00   0.00000000000000E+00
     -1.08868701618276E-16  -9.38266211267407E-34  -1.08868701618276E-16  -1.11307263485131E-17   1.78689566594722E-03
      1.78689554620209E-03   0.00000000000000E+00   0.00000000000000E+00   5.39027536873528E-10   4.17588015383091E-34
      5.39027536873528E-10   4.46951510767193E-18
      4.03050379841723E-02
      0.00000000000000E+00   1.33220559520895E-10   0.00000000000000E+00   0.00000000000000E+00  -6.02857260100515E-10
      4.74419607720373E-34  -6.02857260100515E-10   4.76649339588325E-18   0.00000000000000E+00   0.00000000000000E+00
      0.00000000000000E+00   0.00000000000000E+00   0.00000000000000E+00   0.00000000000000E+00   0.00000000000000E+00
      1.89157446664746E-18   0.00000000000000E+00   0.00000000000000E+00   0.00000000000000E+00   0.00000000000000E+00
      7.34743111294200E-18  -8.94870089689558E-34   7.34743111294200E-18  -1.11305420637079E-17   2.01525189920861E-03
      2.01525176528181E-03   0.00000000000000E+00   0.00000000000000E+00   6.02857252753084E-10   4.20450481969185E-34
      6.02857252753084E-10   4.47247420117721E-18
      4.53288751159228E-02
      0.00000000000000E+00   1.48452232442700E-10   0.00000000000000E+00   0.00000000000000E+00  -6.71773079539632E-10
      4.93320335928815E-34  -6.71773079539632E-10   4.76635979767525E-18   0.00000000000000E+00   0.00000000000000E+00
      0.00000000000000E+00   0.00000000000000E+00   0.00000000000000E+00   0.00000000000000E+00   0.00000000000000E+00
      1.88825056422054E-18   0.00000000000000E+00   0.00000000000000E+00   0.00000000000000E+00   0.00000000000000E+00
      1.01053003555103E-17  -9.19526267600853E-34   1.01053003555103E-17  -1.11303398982443E-17   2.26644375579614E-03
      2.26644360655715E-03   0.00000000000000E+00   0.00000000000000E+00   6.71773069434332E-10   4.26205931672038E-34
      6.71773069434332E-10   4.47572953634848E-18
      5.08550959608485E-02
      0.00000000000000E+00   1.64864872986297E-10   0.00000000000000E+00   0.00000000000000E+00  -7.46029205339773E-10
      4.77324553184534E-34  -7.46029205339773E-10   4.76621285098156E-18   0.00000000000000E+00   0.00000000000000E+00
      0.00000000000000E+00   0.00000000000000E+00   0.00000000000000E+00   0.00000000000000E+00   0.00000000000000E+00
      1.88459452002659E-18   0.00000000000000E+00   0.00000000000000E+00   0.00000000000000E+00   0.00000000000000E+00
      1.52197717626338E-17  -8.90146124903500E-34   1.52197717626338E-17  -1.11301181772027E-17   2.54275479804242E-03
      2.54275463230407E-03   0.00000000000000E+00   0.00000000000000E+00   7.46029190120001E-10   4.12821571718965E-34
      7.46029190120001E-10   4.47931080619460E-18
      5.69339388902666E-02
      0.00000000000000E+00   1.82510411040814E-10   0.00000000000000E+00   0.00000000000000E+00  -8.25859703698731E-10
      4.62382005967799E-34  -8.25859703698731E-10   4.76605122328430E-18   0.00000000000000E+00   0.00000000000000E+00
      0.00000000000000E+00   0.00000000000000E+00   0.00000000000000E+00   0.00000000000000E+00   0.00000000000000E+00
      1.88057317085580E-18   0.00000000000000E+00   0.00000000000000E+00   0.00000000000000E+00   0.00000000000000E+00
      2.19824084226770E-17  -8.84564369372555E-34   2.19824084226770E-17  -1.11298750813167E-17   2.84669694451333E-03
      2.84669676103624E-03   0.00000000000000E+00   0.00000000000000E+00   8.25859681716322E-10   4.22182363404757E-34
      8.25859681716322E-10   4.48325068717657E-18
      6.36206661126266E-02
      0.00000000000000E+00   2.01434335117810E-10   0.00000000000000E+00   0.00000000000000E+00  -9.11469375837956E-10
      5.06856733763776E-34  -9.11469375837956E-10   4.76587344928574E-18   0.00000000000000E+00   0.00000000000000E+00
      0.00000000000000E+00   0.00000000000000E+00   0.00000000000000E+00   0.00000000000000E+00   0.00000000000000E+00
      1.87615004751456E-18   0.00000000000000E+00   0.00000000000000E+00   0.00000000000000E+00   0.00000000000000E+00
      3.24604340930972E-17  -9.12396743900052E-34   3.24604340930972E-17  -1.11296086372412E-17   3.18103330563133E-03
      3.18103310313044E-03   0.00000000000000E+00   0.00000000000000E+00   9.11469343377522E-10   4.05540010136277E-34
      9.11469343377522E-10   4.48758514044086E-18
      7.09760660572226E-02
      0.00000000000000E+00   2.21673401481117E-10   0.00000000000000E+00   0.00000000000000E+00  -1.00302349347280E-09
      4.95294527778761E-34  -1.00302349347280E-09   4.76567791772000E-18   0.00000000000000E+00   0.00000000000000E+00
      0.00000000000000E+00   0.00000000000000E+00   0.00000000000000E+00   0.00000000000000E+00   0.00000000000000E+00
      1.87128504621748E-18   0.00000000000000E+00   0.00000000000000E+00   0.00000000000000E+00   0.00000000000000E+00
      4.68064156534547E-17  -9.09619608184951E-34   4.68064156534547E-17  -1.11293167076414E-17   3.54880330286113E-03
      3.54880308001442E-03   0.00000000000000E+00   0.00000000000000E+00   1.00302344666639E-09   4.14325080406190E-34
      1.00302344666639E-09   4.49235374370391E-18
      7.90670059962782E-02
      0.00000000000000E+00   2.43253000389657E-10   0.00000000000000E+00   0.00000000000000E+00  -1.10063585896044E-09
      4.86683298802139E-34  -1.10063585896044E-09   4.76546285686518E-18   0.00000000000000E+00   0.00000000000000E+00
      0.00000000000000E+00   0.00000000000000E+00   0.00000000000000E+00   0.00000000000000E+00   0.00000000000000E+00
      1.86593406754705E-18   0.00000000000000E+00   0.00000000000000E+00   0.00000000000000E+00   0.00000000000000E+00
      6.76971222632370E-17  -8.80783951720614E-34   6.76971222632370E-17  -1.11289969814441E-17   3.95335029981391E-03
      3.95335005527385E-03   0.00000000000000E+00   0.00000000000000E+00   1.10063579126332E-09   3.94100652918474E-34
      1.10063579126332E-09   4.49760005703188E-18
      8.79670399292394E-02
      0.00000000000000E+00   2.66184171580843E-10   0.00000000000000E+00   0.00000000000000E+00  -1.20435515423587E-09
      4.90049931138489E-34  -1.20435515423587E-09   4.76522631862958E-18   0.00000000000000E+00   0.00000000000000E+00
      0.00000000000000E+00   0.00000000000000E+00   0.00000000000000E+00   0.00000000000000E+00   0.00000000000000E+00
      1.86004861982046E-18   0.00000000000000E+00   0.00000000000000E+00   0.00000000000000E+00   0.00000000000000E+00
      9.83645563715379E-17  -8.70111173035576E-34   9.83645563715379E-17  -1.11286469644883E-17   4.39835199646197E-03
      4.39835172886993E-03   0.00000000000000E+00   0.00000000000000E+00   1.20435505587131E-09   3.80061241897086E-34
      1.20435505587131E-09   4.50337202603828E-18
      9.77570772554967E-02
      0.00000000000000E+00   2.90460304857731E-10   0.00000000000000E+00   0.00000000000000E+00  -1.31415009904481E-09
      4.78369325310386E-34  -1.31415009904481E-09   4.76496616106609E-18   0.00000000000000E+00   0.00000000000000E+00
      0.00000000000000E+00   0.00000000000000E+00   0.00000000000000E+00   0.00000000000000E+00   0.00000000000000E+00
      1.85357538325883E-18   0.00000000000000E+00   0.00000000000000E+00   0.00000000000000E+00   0.00000000000000E+00
      8.19139801054926E-17  -8.66356682485357E-34   8.19139801054926E-17  -1.11282639706490E-17   4.88785386277484E-03
      4.88785357077889E-03   0.00000000000000E+00   0.00000000000000E+00   1.31415001713082E-09   3.87987357174970E-34
      1.31415001713082E-09   4.50972242632409E-18
      1.07757077255497E-01
      0.00000000000000E+00   3.14263588188427E-10   0.00000000000000E+00   0.00000000000000E+00  -1.42179877930893E-09
      4.78171845986363E-34  -1.42179877930893E-09   4.76470046104546E-18   0.00000000000000E+00   0.00000000000000E+00
      0.00000000000000E+00   0.00000000000000E+00   0.00000000000000E+00   0.00000000000000E+00   0.00000000000000E+00
      1.84696412991912E-18   0.00000000000000E+00   0.00000000000000E+00   0.00000000000000E+00   0.00000000000000E+00
      1.64749479990707E-16  -8.45748408281842E-34   1.64749479990707E-16  -1.11278749410525E-17   5.38785386277483E-03
      5.38785354685040E-03   0.00000000000000E+00   0.00000000000000E+00   1.42179861455945E-09   3.67576562295479E-34
      1.42179861455945E-09   4.51621035008795E-18
      1.17757077255497E-01
      0.00000000000000E+00   3.37096218723707E-10   0.00000000000000E+00   0.00000000000000E+00  -1.52505066224740E-09
      4.91247436888756E-34  -1.52505066224740E-09   4.76443479815264E-18   0.00000000000000E+00   0.00000000000000E+00
      0.00000000000000E+00   0.00000000000000E+00   0.00000000000000E+00   0.00000000000000E+00   0.00000000000000E+00
      1.84035369121055E-18   0.00000000000000E+00   0.00000000000000E+00   0.00000000000000E+00   0.00000000000000E+00
     -1.28808530405944E-19  -8.62716262322332E-34  -1.28808530405945E-19  -1.11274881004301E-17   5.88785386277483E-03
      5.88785352389775E-03   0.00000000000000E+00   0.00000000000000E+00   1.52505066237621E-09   3.71468825433576E-34
      1.52505066237621E-09   4.52269961106686E-18
      1.27757077255497E-01
      0.00000000000000E+00   3.58991696175433E-10   0.00000000000000E+00   0.00000000000000E+00  -1.62405827590103E-09
      4.52684913108081E-34  -1.62405827590103E-09   4.76416917208603E-18   0.00000000000000E+00   0.00000000000000E+00
      0.00000000000000E+00   0.00000000000000E+00   0.00000000000000E+00   0.00000000000000E+00   0.00000000000000E+00
      1.83374406119076E-18   0.00000000000000E+00   0.00000000000000E+00   0.00000000000000E+00   0.00000000000000E+00
      6.38795058716272E-17  -7.99368751524699E-34   6.38795058716272E-17  -1.11271034364090E-17   6.38785386277483E-03
      6.38785350188725E-03   0.00000000000000E+00   0.00000000000000E+00   1.62405821202153E-09   3.46683838416617E-34
      1.62405821202153E-09   4.52919020313225E-18
      1.37757077255497E-01
      0.00000000000000E+00   3.79982759256219E-10   0.00000000000000E+00   0.00000000000000E+00  -1.71897048066609E-09
      4.91555027802425E-34  -1.71897048066609E-09   4.76390358254113E-18   0.00000000000000E+00   0.00000000000000E+00
      0.00000000000000E+00   0.00000000000000E+00   0.00000000000000E+00   0.00000000000000E+00   0.00000000000000E+00
      1.82713523396235E-18   0.00000000000000E+00   0.00000000000000E+00   0.00000000000000E+00   0.00000000000000E+00
      1.61489926801452E-16  -8.49330798924573E-34   1.61489926801452E-16  -1.11267209367097E-17   6.88785386277483E-03
      6.88785348078599E-03   0.00000000000000E+00   0.00000000000000E+00   1.71897031917616E-09   3.57775771122148E-34
      1.71897031917616E-09   4.53568212020626E-18
      1.47757077255497E-01
      0.00000000000000E+00   4.00101690079123E-10   0.00000000000000E+00   0.00000000000000E+00  -1.80993422123107E-09
      4.90062943481797E-34  -1.80993422123107E-09   4.76363802921607E-18   0.00000000000000E+00   0.00000000000000E+00
      0.00000000000000E+00   0.00000000000000E+00   0.00000000000000E+00   0.00000000000000E+00   0.00000000000000E+00
      1.82052720371713E-18   0.00000000000000E+00   0.00000000000000E+00   0.00000000000000E+00   0.00000000000000E+00
      1.91499270182322E-16  -8.27811064525048E-34   1.91499270182322E-16  -1.11263405891980E-17   7.38785386277483E-03
      7.38785346056150E-03   0.00000000000000E+00   0.00000000000000E+00   1.80993402973180E-09   3.37748121043250E-34
      1.80993402973180E-09   4.54217535626479E-18
      1.57757077255497E-01
      0.00000000000000E+00   4.19380057867103E-10   0.00000000000000E+00   0.00000000000000E+00  -1.89709304635486E-09
      4.68612692312190E-34  -1.89709304635486E-09   4.76337251180752E-18   0.00000000000000E+00   0.00000000000000E+00
      0.00000000000000E+00   0.00000000000000E+00   0.00000000000000E+00   0.00000000000000E+00   0.00000000000000E+00
      1.81391996467831E-18   0.00000000000000E+00   0.00000000000000E+00   0.00000000000000E+00   0.00000000000000E+00
      1.50985112835324E-16  -8.10631581231512E-34   1.50985112835324E-16  -1.11259623818035E-17   7.88785386277484E-03
      7.88785344118204E-03   0.00000000000000E+00   0.00000000000000E+00   1.89709289536975E-09   3.42018888919321E-34
      1.89709289536975E-09   4.54866990531763E-18
      1.67757077255497E-01
      0.00000000000000E+00   4.37848779308129E-10   0.00000000000000E+00   0.00000000000000E+00  -1.98058764009668E-09
      4.80961019559731E-34  -1.98058764009668E-09   4.76310703000491E-18   0.00000000000000E+00   0.00000000000000E+00
      0.00000000000000E+00   0.00000000000000E+00   0.00000000000000E+00   0.00000000000000E+00   0.00000000000000E+00
      1.80731351100281E-18   0.00000000000000E+00   0.00000000000000E+00   0.00000000000000E+00   0.00000000000000E+00
      1.55690884881492E-16  -8.33575409360089E-34   1.55690884881492E-16  -1.11255863023569E-17   8.38785386277484E-03
      8.38785342261652E-03   0.00000000000000E+00   0.00000000000000E+00   1.98058748440580E-09   3.52614389800359E-34
      1.98058748440580E-09   4.55516576134920E-18
      1.77757077255497E-01
      0.00000000000000E+00   4.55537954109360E-10   0.00000000000000E+00   0.00000000000000E+00  -2.06055496786304E-09
      4.73151338391750E-34  -2.06055496786304E-09   4.76284158350009E-18   0.00000000000000E+00   0.00000000000000E+00
      0.00000000000000E+00   0.00000000000000E+00   0.00000000000000E+00   0.00000000000000E+00   0.00000000000000E+00
      1.80070783691698E-18   0.00000000000000E+00   0.00000000000000E+00   0.00000000000000E+00   0.00000000000000E+00
      1.54266344265942E-16  -8.08017913051644E-34   1.54266344265942E-16  -1.11252123388122E-17   8.88785386277484E-03
      8.88785340483467E-03   0.00000000000000E+00   0.00000000000000E+00   2.06055481359670E-09   3.34866574659894E-34
      2.06055481359670E-09   4.56166291839514E-18
      1.87757077255497E-01
      0.00000000000000E+00   4.72476927976404E-10   0.00000000000000E+00   0.00000000000000E+00  -2.13712836288406E-09
      4.97991985289511E-34  -2.13712836288406E-09   4.76257617198603E-18   0.00000000000000E+00   0.00000000000000E+00
      0.00000000000000E+00   0.00000000000000E+00   0.00000000000000E+00   0.00000000000000E+00   0.00000000000000E+00
      1.79410293670386E-18   0.00000000000000E+00   0.00000000000000E+00   0.00000000000000E+00   0.00000000000000E+00
      1.52816036494879E-16  -8.19403946826097E-34   1.52816036494879E-16  -1.11248404792268E-17   9.38785386277484E-03
      9.38785338780701E-03   0.00000000000000E+00   0.00000000000000E+00   2.13712821006802E-09   3.21411961536585E-34
      2.13712821006802E-09   4.56816137053688E-18
      1.97757077255497E-01
      0.00000000000000E+00   4.88694205142131E-10   0.00000000000000E+00   0.00000000000000E+00  -2.21043750250176E-09