DF-ISE text

Info {
  version   = 1.0
  type      = xyplot
  datasets  = [
    "time"
    "source OuterVoltage" "source InnerVoltage" "source QuasiFermiPotential" "source DisplacementCurrent" "source eCurrent"
    "source hCurrent" "source TotalCurrent" "source Charge" "gate OuterVoltage" "gate InnerVoltage"
    "gate QuasiFermiPotential" "gate DisplacementCurrent" "gate eCurrent" "gate hCurrent" "gate TotalCurrent"
    "gate Charge" "substrate OuterVoltage" "substrate InnerVoltage" "substrate QuasiFermiPotential" "substrate DisplacementCurrent"
    "substrate eCurrent" "substrate hCurrent" "substrate TotalCurrent" "substrate Charge" "drain OuterVoltage"
    "drain InnerVoltage" "drain QuasiFermiPotential" "drain DisplacementCurrent" "drain eCurrent" "drain hCurrent"
    "drain TotalCurrent" "drain Charge" ]
  functions = [
    Time
    OuterVoltage InnerVoltage QuasiFermiPotential DisplacementCurrent eCurrent
    hCurrent TotalCurrent Charge OuterVoltage InnerVoltage
    QuasiFermiPotential DisplacementCurrent eCurrent hCurrent TotalCurrent
    Charge OuterVoltage InnerVoltage QuasiFermiPotential DisplacementCurrent
    eCurrent hCurrent TotalCurrent Charge OuterVoltage
    InnerVoltage QuasiFermiPotential DisplacementCurrent eCurrent hCurrent
    TotalCurrent Charge ]
}

Data {
      0.00000000000000E+00
      0.00000000000000E+00   0.00000000000000E+00   0.00000000000000E+00   0.00000000000000E+00  -4.50590938446032E-21
     -1.24032555376616E-34  -4.50590938446044E-21   4.17513523513899E-18   0.00000000000000E+00   0.00000000000000E+00
      0.00000000000000E+00   0.00000000000000E+00   0.00000000000000E+00   0.00000000000000E+00   0.00000000000000E+00
      3.25580927807234E-18   0.00000000000000E+00   0.00000000000000E+00   0.00000000000000E+00   0.00000000000000E+00
     -3.50124863874006E-21   2.54600333389880E-34  -3.50124863873980E-21  -1.08682850509962E-17   0.00000000000000E+00
      0.00000000000000E+00   0.00000000000000E+00   0.00000000000000E+00   8.00715802320038E-21  -1.30567778013264E-34
      8.00715802320025E-21   3.43734053778491E-18
      0.00000000000000E+00
      0.00000000000000E+00   0.00000000000000E+00   0.00000000000000E+00   0.00000000000000E+00  -4.20033979865311E-19
     -1.23042586809471E-34  -4.20033979865311E-19   4.17361555199035E-18   0.00000000000000E+00   0.00000000000000E+00
      0.00000000000000E+00   0.00000000000000E+00   0.00000000000000E+00   0.00000000000000E+00   0.00000000000000E+00
      3.24965670402306E-18   0.00000000000000E+00   0.00000000000000E+00   0.00000000000000E+00   0.00000000000000E+00
      3.68442795508893E-19   2.57727439027260E-34   3.68442795508893E-19  -1.08594198695052E-17   0.00000000000000E+00
      0.00000000000000E+00   0.00000000000000E+00   0.00000000000000E+00   5.15911843564185E-20  -1.34684852217789E-34
      5.15911843564184E-20   3.43614761349184E-18
      1.00000000000000E-03
      0.00000000000000E+00   2.16506155654074E-12   0.00000000000000E+00   0.00000000000000E+00  -8.12229408743569E-12
     -1.24628762840511E-34  -8.12229408743569E-12   4.17360563746552E-18   0.00000000000000E+00   0.00000000000000E+00
      0.00000000000000E+00   0.00000000000000E+00   0.00000000000000E+00   0.00000000000000E+00   0.00000000000000E+00
      3.24911525010585E-18   0.00000000000000E+00   0.00000000000000E+00   0.00000000000000E+00   0.00000000000000E+00
     -1.17146463921917E-19   2.88546676967731E-34  -1.17146463921917E-19  -1.08593919025427E-17   5.00000000000000E-05
      4.99999978265771E-05   0.00000000000000E+00   0.00000000000000E+00   8.12229420458216E-12  -1.63917914127220E-34
      8.12229420458216E-12   3.43667101497136E-18
      2.09333333333333E-03
      0.00000000000000E+00   4.52515123778088E-12   0.00000000000000E+00   0.00000000000000E+00  -1.69761368164584E-11
     -1.11016269661103E-34  -1.69761368164584E-11   4.17359479776445E-18   0.00000000000000E+00   0.00000000000000E+00
      0.00000000000000E+00   0.00000000000000E+00   0.00000000000000E+00   0.00000000000000E+00   0.00000000000000E+00
      3.24852327110812E-18   0.00000000000000E+00   0.00000000000000E+00   0.00000000000000E+00   0.00000000000000E+00
     -2.61528931872792E-19   2.56167489877815E-34  -2.61528931872792E-19  -1.08593613501297E-17   1.04666666666667E-04
      1.04666662124070E-04   0.00000000000000E+00   0.00000000000000E+00   1.69761370779873E-11  -1.45151220216712E-34
      1.69761370779873E-11   3.43724328125710E-18
      3.29600000000000E-03
      0.00000000000000E+00   7.11241470174305E-12   0.00000000000000E+00   0.00000000000000E+00  -2.66822384376634E-11
     -1.14094099262757E-34  -2.66822384376634E-11   4.17358287431085E-18   0.00000000000000E+00   0.00000000000000E+00
      0.00000000000000E+00   0.00000000000000E+00   0.00000000000000E+00   0.00000000000000E+00   0.00000000000000E+00
      3.24787210700962E-18   0.00000000000000E+00   0.00000000000000E+00   0.00000000000000E+00   0.00000000000000E+00
     -1.04987864370017E-19   2.48473200855371E-34  -1.04987864370017E-19  -1.08593277723726E-17   1.64800000000000E-04
      1.64799992860166E-04   0.00000000000000E+00   0.00000000000000E+00   2.66822385426513E-11  -1.34379101592614E-34
      2.66822385426513E-11   3.43787279105214E-18
      4.61893333333333E-03
      0.00000000000000E+00   9.94753093016823E-12   0.00000000000000E+00   0.00000000000000E+00  -3.73181076052374E-11
     -1.24889119540731E-34  -3.73181076052374E-11   4.17356975877582E-18   0.00000000000000E+00   0.00000000000000E+00
      0.00000000000000E+00   0.00000000000000E+00   0.00000000000000E+00   0.00000000000000E+00   0.00000000000000E+00
      3.24715584197182E-18   0.00000000000000E+00   0.00000000000000E+00   0.00000000000000E+00   0.00000000000000E+00
      9.94576983037071E-20   2.44842291937798E-34   9.94576983037074E-20  -1.08592908729853E-17   2.30946666666667E-04
      2.30946656680793E-04   0.00000000000000E+00   0.00000000000000E+00   3.73181075057797E-11  -1.19953172397067E-34
      3.73181075057797E-11   3.43856527223762E-18
      6.07416000000000E-03
      0.00000000000000E+00   1.30528386041394E-11   0.00000000000000E+00   0.00000000000000E+00  -4.89675013932277E-11
     -1.06696807979582E-34  -4.89675013932277E-11   4.17355533200716E-18   0.00000000000000E+00   0.00000000000000E+00
      0.00000000000000E+00   0.00000000000000E+00   0.00000000000000E+00   0.00000000000000E+00   0.00000000000000E+00
      3.24636796912796E-18   0.00000000000000E+00   0.00000000000000E+00   0.00000000000000E+00   0.00000000000000E+00
      8.98107065256933E-20   2.74010160008172E-34   8.98107065256936E-20  -1.08592503273550E-17   3.03708000000000E-04
      3.03707986896853E-04   0.00000000000000E+00   0.00000000000000E+00   4.89675013034170E-11  -1.67313352028590E-34
      4.89675013034170E-11   3.43932702621993E-18
      7.67490933333333E-03
      0.00000000000000E+00   1.64524038279789E-11   0.00000000000000E+00   0.00000000000000E+00  -6.17206805492918E-11
     -1.02895759620456E-34  -6.17206805492918E-11   4.17353946294902E-18   0.00000000000000E+00   0.00000000000000E+00
      0.00000000000000E+00   0.00000000000000E+00   0.00000000000000E+00   0.00000000000000E+00   0.00000000000000E+00
      3.24550133159521E-18   0.00000000000000E+00   0.00000000000000E+00   0.00000000000000E+00   0.00000000000000E+00
      2.30705187115382E-19   2.34704124890687E-34   2.30705187115383E-19  -1.08592057799807E-17   3.83745466666667E-04
      3.83745450150874E-04   0.00000000000000E+00   0.00000000000000E+00   6.17206803185866E-11  -1.31808365270231E-34
      6.17206803185866E-11   3.44016498543648E-18
      9.43573360000000E-03
      0.00000000000000E+00   2.01720859976960E-11   0.00000000000000E+00   0.00000000000000E+00  -7.56746485929441E-11
     -1.29519068812775E-34  -7.56746485929441E-11   4.17352200745400E-18   0.00000000000000E+00   0.00000000000000E+00
      0.00000000000000E+00   0.00000000000000E+00   0.00000000000000E+00   0.00000000000000E+00   0.00000000000000E+00
      3.24454805761149E-18   0.00000000000000E+00   0.00000000000000E+00   0.00000000000000E+00   0.00000000000000E+00
      2.26033657344593E-20   2.67806887703107E-34   2.26033657344596E-20  -1.08591568417094E-17   4.71786680000000E-04
      4.71786659750212E-04   0.00000000000000E+00   0.00000000000000E+00   7.56746485703408E-11  -1.38287818890332E-34
      7.56746485703408E-11   3.44108677664388E-18
      1.13726402933333E-02
      0.00000000000000E+00   2.42396305734488E-11   0.00000000000000E+00   0.00000000000000E+00  -9.09333497839215E-11
     -1.09424029140672E-34  -9.09333497839215E-11   4.17350280697700E-18   0.00000000000000E+00   0.00000000000000E+00
      0.00000000000000E+00   0.00000000000000E+00   0.00000000000000E+00   0.00000000000000E+00   0.00000000000000E+00
      3.24349948921445E-18   0.00000000000000E+00   0.00000000000000E+00   0.00000000000000E+00   0.00000000000000E+00
     -4.81541696314955E-20   2.24144913287481E-34  -4.81541696314953E-20  -1.08591030867644E-17   5.68632014666667E-04
      5.68631990333702E-04   0.00000000000000E+00   0.00000000000000E+00   9.09333498320757E-11  -1.14720884146809E-34
      9.09333498320757E-11   3.44210079057293E-18
      1.35032376560000E-02
      0.00000000000000E+00   2.86846050665460E-11   0.00000000000000E+00   0.00000000000000E+00  -1.07607796870454E-10
     -1.20083287530808E-34  -1.07607796870454E-10   4.17348168713879E-18   0.00000000000000E+00   0.00000000000000E+00
      0.00000000000000E+00   0.00000000000000E+00   0.00000000000000E+00   0.00000000000000E+00   0.00000000000000E+00
      3.24234610382223E-18   0.00000000000000E+00   0.00000000000000E+00   0.00000000000000E+00   0.00000000000000E+00
     -1.51176801499290E-19   2.53733489447461E-34  -1.51176801499290E-19  -1.08590440495566E-17   6.75161882800000E-04
      6.75161854004974E-04   0.00000000000000E+00   0.00000000000000E+00   1.07607797021631E-10  -1.33650201916654E-34
      1.07607797021631E-10   3.44321625859557E-18
      1.58468947549333E-02
      0.00000000000000E+00   3.35385521140083E-11   0.00000000000000E+00   0.00000000000000E+00  -1.25816107943134E-10
     -1.04311926188501E-34  -1.25816107943134E-10   4.17345845614691E-18   0.00000000000000E+00   0.00000000000000E+00
      0.00000000000000E+00   0.00000000000000E+00   0.00000000000000E+00   0.00000000000000E+00   0.00000000000000E+00
      3.24107742801325E-18   0.00000000000000E+00   0.00000000000000E+00   0.00000000000000E+00   0.00000000000000E+00
      1.06520321726534E-19   2.49271924381361E-34   1.06520321726535E-19  -1.08589792212738E-17   7.92344737746667E-04
      7.92344704079071E-04   0.00000000000000E+00   0.00000000000000E+00   1.25816107836614E-10  -1.44959998192860E-34
      1.25816107836614E-10   3.44444333711367E-18
      1.84249175637600E-02
      0.00000000000000E+00   3.88348104277173E-11   0.00000000000000E+00   0.00000000000000E+00  -1.45683422099081E-10
     -1.08995660577572E-34  -1.45683422099081E-10   4.17343290305945E-18   0.00000000000000E+00   0.00000000000000E+00
      0.00000000000000E+00   0.00000000000000E+00   0.00000000000000E+00   0.00000000000000E+00   0.00000000000000E+00
      3.23968194273290E-18   0.00000000000000E+00   0.00000000000000E+00   0.00000000000000E+00   0.00000000000000E+00
      4.77780341568932E-19   2.31880383713279E-34   4.77780341568932E-19  -1.08589080462459E-17   9.21245878188001E-04
      9.21245839203815E-04   0.00000000000000E+00   0.00000000000000E+00   1.45683421621301E-10  -1.22884723135706E-34
      1.45683421621301E-10   3.44579320045360E-18
      2.12607426534693E-02
      0.00000000000000E+00   4.46086140609500E-11   0.00000000000000E+00   0.00000000000000E+00  -1.67341658187182E-10
     -1.30388539158766E-34  -1.67341658187182E-10   4.17340479587611E-18   0.00000000000000E+00   0.00000000000000E+00
      0.00000000000000E+00   0.00000000000000E+00   0.00000000000000E+00   0.00000000000000E+00   0.00000000000000E+00
      3.23814697908026E-18   0.00000000000000E+00   0.00000000000000E+00   0.00000000000000E+00   0.00000000000000E+00
      3.47063246240850E-19   2.65238399497657E-34   3.47063246240850E-19  -1.08588299180869E-17   1.06303713267347E-03
      1.06303708789332E-03   0.00000000000000E+00   0.00000000000000E+00   1.67341657840119E-10  -1.34849860338891E-34
      1.67341657840119E-10   3.44727814313059E-18
      2.43801502521496E-02
      0.00000000000000E+00   5.08968428504558E-11   0.00000000000000E+00   0.00000000000000E+00  -1.90929086525957E-10
     -1.06679237311287E-34  -1.90929086525957E-10   4.17337387943970E-18   0.00000000000000E+00   0.00000000000000E+00
      0.00000000000000E+00   0.00000000000000E+00   0.00000000000000E+00   0.00000000000000E+00   0.00000000000000E+00
      3.23645860374301E-18   0.00000000000000E+00   0.00000000000000E+00   0.00000000000000E+00   0.00000000000000E+00
      7.82213831788072E-19   2.43940504203539E-34   7.82213831788073E-19  -1.08587441756187E-17   1.21900751260748E-03
      1.21900746151503E-03   0.00000000000000E+00   0.00000000000000E+00   1.90929085743743E-10  -1.37261266892251E-34
      1.90929085743743E-10   3.44891169243598E-18
      2.78114986106979E-02
      0.00000000000000E+00   5.77379027399816E-11   0.00000000000000E+00   0.00000000000000E+00  -2.16589648687657E-10
     -1.19971885875349E-34  -2.16589648687657E-10   4.17333987312924E-18   0.00000000000000E+00   0.00000000000000E+00
      0.00000000000000E+00   0.00000000000000E+00   0.00000000000000E+00   0.00000000000000E+00   0.00000000000000E+00
      3.23460149306171E-18   0.00000000000000E+00   0.00000000000000E+00   0.00000000000000E+00   0.00000000000000E+00
      1.17354214875556E-18   2.12369526718316E-34   1.17354214875556E-18  -1.08586500985903E-17   1.39057493053490E-03
      1.39057487257519E-03   0.00000000000000E+00   0.00000000000000E+00   2.16589647514115E-10  -9.23976408429671E-35
      2.16589647514115E-10   3.45070873239937E-18
      3.15859818051010E-02
      0.00000000000000E+00   6.51714854995947E-11   0.00000000000000E+00   0.00000000000000E+00  -2.44472010040071E-10
     -1.45732393698964E-34  -2.44472010040071E-10   4.17330246832408E-18   0.00000000000000E+00   0.00000000000000E+00
      0.00000000000000E+00   0.00000000000000E+00   0.00000000000000E+00   0.00000000000000E+00   0.00000000000000E+00
      3.23255879459629E-18   0.00000000000000E+00   0.00000000000000E+00   0.00000000000000E+00   0.00000000000000E+00
      2.13992079544105E-18   2.51760156007319E-34   2.13992079544105E-18  -1.08585469032059E-17   1.57929909025505E-03
      1.57929902483333E-03   0.00000000000000E+00   0.00000000000000E+00   2.44472007900150E-10  -1.06027762308356E-34
      2.44472007900150E-10   3.45268564028553E-18
      3.57379133189445E-02
      0.00000000000000E+00   7.32381781536193E-11   0.00000000000000E+00   0.00000000000000E+00  -2.74728246421434E-10
     -1.18483673796484E-34  -2.74728246421434E-10   4.17326132561640E-18   0.00000000000000E+00   0.00000000000000E+00
      0.00000000000000E+00   0.00000000000000E+00   0.00000000000000E+00   0.00000000000000E+00   0.00000000000000E+00
      3.23031197497179E-18   0.00000000000000E+00   0.00000000000000E+00   0.00000000000000E+00   0.00000000000000E+00
      2.93024193100318E-18   2.40671574405586E-34   2.93024193100318E-18  -1.08584337374968E-17   1.78689566594722E-03
      1.78689559242801E-03   0.00000000000000E+00   0.00000000000000E+00   2.74728243491193E-10  -1.22187900609101E-34
      2.74728243491193E-10   3.45486043690863E-18
      4.03050379841723E-02
      0.00000000000000E+00   8.19790668422244E-11   0.00000000000000E+00   0.00000000000000E+00  -3.07512122322705E-10
     -1.34418106593937E-34  -3.07512122322705E-10   4.17321607174732E-18   0.00000000000000E+00   0.00000000000000E+00
      0.00000000000000E+00   0.00000000000000E+00   0.00000000000000E+00   0.00000000000000E+00   0.00000000000000E+00
      3.22784065264796E-18   0.00000000000000E+00   0.00000000000000E+00   0.00000000000000E+00   0.00000000000000E+00
      4.60799518426363E-18   2.43488127428491E-34   4.60799518426363E-18  -1.08583096765702E-17   2.01525189920861E-03
      2.01525181691516E-03   0.00000000000000E+00   0.00000000000000E+00   3.07512117714709E-10  -1.09070020834554E-34
      3.07512117714709E-10   3.45725295217498E-18
      4.53288751159228E-02
      0.00000000000000E+00   9.14350651487995E-11   0.00000000000000E+00   0.00000000000000E+00  -3.42976849882139E-10
     -1.21023483332242E-34  -3.42976849882139E-10   4.17316629624014E-18   0.00000000000000E+00   0.00000000000000E+00
      0.00000000000000E+00   0.00000000000000E+00   0.00000000000000E+00   0.00000000000000E+00   0.00000000000000E+00
      3.22512241414967E-18   0.00000000000000E+00   0.00000000000000E+00   0.00000000000000E+00   0.00000000000000E+00
      6.58735737454616E-18   2.59871907923703E-34   6.58735737454616E-18  -1.08581737178170E-17   2.26644375579614E-03
      2.26644366401067E-03   0.00000000000000E+00   0.00000000000000E+00   3.42976843294781E-10  -1.38848424591461E-34
      3.42976843294781E-10   3.45988500742721E-18
      5.08550959608485E-02
      0.00000000000000E+00   1.01646237788709E-10   0.00000000000000E+00   0.00000000000000E+00  -3.81272381332751E-10
     -1.29669032970081E-34  -3.81272381332751E-10   4.17311154769925E-18   0.00000000000000E+00   0.00000000000000E+00
      0.00000000000000E+00   0.00000000000000E+00   0.00000000000000E+00   0.00000000000000E+00   0.00000000000000E+00
      3.22213261209874E-18   0.00000000000000E+00   0.00000000000000E+00   0.00000000000000E+00   0.00000000000000E+00
      3.53824974236933E-17   2.34973486676630E-34   3.53824974236933E-17  -1.08580247760977E-17   2.54275479804242E-03
      2.54275469600692E-03   0.00000000000000E+00   0.00000000000000E+00   3.81272345950253E-10  -1.05304453706549E-34
      3.81272345950253E-10   3.46278061629976E-18
      5.69339388902666E-02
      0.00000000000000E+00   1.12650856185629E-10   0.00000000000000E+00   0.00000000000000E+00  -4.22541712817673E-10
     -1.20446383224351E-34  -4.22541712817673E-10   4.17305132974402E-18   0.00000000000000E+00   0.00000000000000E+00
      0.00000000000000E+00   0.00000000000000E+00   0.00000000000000E+00   0.00000000000000E+00   0.00000000000000E+00
      3.21884414331495E-18   0.00000000000000E+00   0.00000000000000E+00   0.00000000000000E+00   0.00000000000000E+00
      1.45023017504256E-17   2.46857929914685E-34   1.45023017504256E-17  -1.08578616790714E-17   2.84669694451333E-03
      2.84669683143140E-03   0.00000000000000E+00   0.00000000000000E+00   4.22541698315371E-10  -1.26411546690334E-34
      4.22541698315371E-10   3.46596620601244E-18
      6.36206661126266E-02
      0.00000000000000E+00   1.24484331588240E-10   0.00000000000000E+00   0.00000000000000E+00  -4.66917245910742E-10
     -1.34282209781865E-34  -4.66917245910742E-10   4.17298509653978E-18   0.00000000000000E+00   0.00000000000000E+00
      0.00000000000000E+00   0.00000000000000E+00   0.00000000000000E+00   0.00000000000000E+00   0.00000000000000E+00
      3.21522720496756E-18   0.00000000000000E+00   0.00000000000000E+00   0.00000000000000E+00   0.00000000000000E+00
      2.13808385690263E-17   2.58850678423412E-34   2.13808385690263E-17  -1.08576831626948E-17   3.18103330563133E-03
      3.18103318067102E-03   0.00000000000000E+00   0.00000000000000E+00   4.66917224529903E-10  -1.24568468641547E-34
      4.66917224529903E-10   3.46947086118746E-18
      7.09760660572226E-02
      0.00000000000000E+00   1.37177868941801E-10   0.00000000000000E+00   0.00000000000000E+00  -5.14515328317876E-10
     -1.07930104419894E-34  -5.14515328317876E-10   4.17291224788830E-18   0.00000000000000E+00   0.00000000000000E+00
      0.00000000000000E+00   0.00000000000000E+00   0.00000000000000E+00   0.00000000000000E+00   0.00000000000000E+00
      3.21124902672211E-18   0.00000000000000E+00   0.00000000000000E+00   0.00000000000000E+00   0.00000000000000E+00
      3.75796227512707E-17   2.42041135771884E-34   3.75796227512707E-17  -1.08574878671611E-17   3.54880330286113E-03
      3.54880316515922E-03   0.00000000000000E+00   0.00000000000000E+00   5.14515290738253E-10  -1.34111031351990E-34
      5.14515290738253E-10   3.47332659255074E-18
      7.90670059962782E-02
      0.00000000000000E+00   1.50756862852287E-10   0.00000000000000E+00   0.00000000000000E+00  -5.65430611100417E-10
     -1.24099910820828E-34  -5.65430611100417E-10   4.17283212383289E-18   0.00000000000000E+00   0.00000000000000E+00
      0.00000000000000E+00   0.00000000000000E+00   0.00000000000000E+00   0.00000000000000E+00   0.00000000000000E+00
      3.20687357645713E-18   0.00000000000000E+00   0.00000000000000E+00   0.00000000000000E+00   0.00000000000000E+00
      4.52170622468629E-17   2.44567669713905E-34   4.52170622468629E-17  -1.08572743333561E-17   3.95335029981391E-03
      3.95335014848166E-03   0.00000000000000E+00   0.00000000000000E+00   5.65430565883355E-10  -1.20467758893077E-34
      5.65430565883355E-10   3.47756863306603E-18
      8.79670399292394E-02
      0.00000000000000E+00   1.65239232320699E-10   0.00000000000000E+00   0.00000000000000E+00  -6.19729481674533E-10
     -1.39487799408184E-34  -6.19729481674533E-10   4.17274399873149E-18   0.00000000000000E+00   0.00000000000000E+00
      0.00000000000000E+00   0.00000000000000E+00   0.00000000000000E+00   0.00000000000000E+00   0.00000000000000E+00
      3.20206123701708E-18   0.00000000000000E+00   0.00000000000000E+00   0.00000000000000E+00   0.00000000000000E+00
      6.60394068926470E-17   2.48407760836388E-34   6.60394068926470E-17  -1.08570410001315E-17   4.39835199646197E-03
      4.39835183059270E-03   0.00000000000000E+00   0.00000000000000E+00   6.19729415635127E-10  -1.08919961428203E-34
      6.19729415635127E-10   3.48223576438295E-18
      9.77570772554967E-02
      0.00000000000000E+00   1.80633277699199E-10   0.00000000000000E+00   0.00000000000000E+00  -6.77442204599569E-10
     -1.21764550503106E-34  -6.77442204599569E-10   4.17264707474639E-18   0.00000000000000E+00   0.00000000000000E+00
      0.00000000000000E+00   0.00000000000000E+00   0.00000000000000E+00   0.00000000000000E+00   0.00000000000000E+00
      3.19676845119921E-18   0.00000000000000E+00   0.00000000000000E+00   0.00000000000000E+00   0.00000000000000E+00
      9.56888092894480E-17   2.30941239867270E-34   9.56888092894480E-17  -1.08567862026846E-17   4.88785386277484E-03
      4.88785368145355E-03   0.00000000000000E+00   0.00000000000000E+00   6.77442108910759E-10  -1.09176689364164E-34
      6.77442108910759E-10   3.48737067673900E-18
      1.07757077255497E-01
      0.00000000000000E+00   1.95792815631869E-10   0.00000000000000E+00   0.00000000000000E+00  -7.34271227829075E-10
     -1.06110392980526E-34  -7.34271227829075E-10   4.17254808667242E-18   0.00000000000000E+00   0.00000000000000E+00
      0.00000000000000E+00   0.00000000000000E+00   0.00000000000000E+00   0.00000000000000E+00   0.00000000000000E+00
      3.19136299814771E-18   0.00000000000000E+00   0.00000000000000E+00   0.00000000000000E+00   0.00000000000000E+00
      1.10738024190996E-16   2.23690223748708E-34   1.10738024190996E-16  -1.08565279493056E-17   5.38785386277483E-03
      5.38785366623704E-03   0.00000000000000E+00   0.00000000000000E+00   7.34271117091052E-10  -1.17579830768182E-34
      7.34271117091052E-10   3.49261686448545E-18
      1.17757077255497E-01
      0.00000000000000E+00   2.10398091913158E-10   0.00000000000000E+00   0.00000000000000E+00  -7.89018134694228E-10
     -1.33410238478954E-34  -7.89018134694228E-10   4.17244911320317E-18   0.00000000000000E+00   0.00000000000000E+00
      0.00000000000000E+00   0.00000000000000E+00   0.00000000000000E+00   0.00000000000000E+00   0.00000000000000E+00
      3.18595839167417E-18   0.00000000000000E+00   0.00000000000000E+00   0.00000000000000E+00   0.00000000000000E+00
      2.89000070148724E-19   2.10368358816825E-34   2.89000070148724E-19  -1.08562717123656E-17   5.88785386277483E-03
      5.88785365157700E-03   0.00000000000000E+00   0.00000000000000E+00   7.89018134405228E-10  -7.69581203378711E-35
      7.89018134405228E-10   3.49786420748823E-18
      1.27757077255497E-01
      0.00000000000000E+00   2.24465562522345E-10   0.00000000000000E+00   0.00000000000000E+00  -8.41745115371519E-10
     -1.30620002168440E-34  -8.41745115371519E-10   4.17235015418938E-18   0.00000000000000E+00   0.00000000000000E+00
      0.00000000000000E+00   0.00000000000000E+00   0.00000000000000E+00   0.00000000000000E+00   0.00000000000000E+00
      3.18055462457522E-18   0.00000000000000E+00   0.00000000000000E+00   0.00000000000000E+00   0.00000000000000E+00
      1.09870693787360E-16   2.60476738239306E-34   1.09870693787360E-16  -1.08560174784163E-17   6.38785386277483E-03
      6.38785363745682E-03   0.00000000000000E+00   0.00000000000000E+00   8.41745005500825E-10  -1.29856736070866E-34
      8.41745005500825E-10   3.50311269965174E-18
      1.37757077255497E-01
      0.00000000000000E+00   2.38011499749233E-10   0.00000000000000E+00   0.00000000000000E+00  -8.92513254309411E-10
     -1.30507208674137E-34  -8.92513254309411E-10   4.17225120948143E-18   0.00000000000000E+00   0.00000000000000E+00
      0.00000000000000E+00   0.00000000000000E+00   0.00000000000000E+00   0.00000000000000E+00   0.00000000000000E+00
      3.17515168972422E-18   0.00000000000000E+00   0.00000000000000E+00   0.00000000000000E+00   0.00000000000000E+00
      8.87791465391415E-17   2.22995332868554E-34   8.87791465391415E-17  -1.08557652341341E-17   6.88785386277483E-03
      6.88785362386025E-03   0.00000000000000E+00   0.00000000000000E+00   8.92513165530265E-10  -9.24881241944173E-35
      8.92513165530265E-10   3.50836233492841E-18
      1.47757077255497E-01
      0.00000000000000E+00   2.51051929108878E-10   0.00000000000000E+00   0.00000000000000E+00  -9.41383154516788E-10
     -1.16617523691493E-34  -9.41383154516788E-10   4.17215227892912E-18   0.00000000000000E+00   0.00000000000000E+00
      0.00000000000000E+00   0.00000000000000E+00   0.00000000000000E+00   0.00000000000000E+00   0.00000000000000E+00
      3.16974958003777E-18   0.00000000000000E+00   0.00000000000000E+00   0.00000000000000E+00   0.00000000000000E+00
      1.01909014065296E-16   1.94253450682114E-34   1.01909014065296E-16  -1.08555149662636E-17   7.38785386277483E-03
      7.38785361077114E-03   0.00000000000000E+00   0.00000000000000E+00   9.41383052607774E-10  -7.76359269906210E-35
      9.41383052607774E-10   3.51361310729668E-18
      1.57757077255497E-01
      0.00000000000000E+00   2.63602684077341E-10   0.00000000000000E+00   0.00000000000000E+00  -9.88414406622929E-10
     -1.13859838085723E-34  -9.88414406622929E-10   4.17205336238157E-18   0.00000000000000E+00   0.00000000000000E+00
      0.00000000000000E+00   0.00000000000000E+00   0.00000000000000E+00   0.00000000000000E+00   0.00000000000000E+00
      3.16434828848007E-18   0.00000000000000E+00   0.00000000000000E+00   0.00000000000000E+00   0.00000000000000E+00
      1.05100692363415E-16   2.12379216764652E-34   1.05100692363415E-16  -1.08552666616320E-17   7.88785386277484E-03
      7.88785359817360E-03   0.00000000000000E+00   0.00000000000000E+00   9.88414301522237E-10  -9.85193786789286E-35
      9.88414301522237E-10   3.51886501077036E-18
      1.67757077255497E-01
      0.00000000000000E+00   2.75679287342934E-10   0.00000000000000E+00   0.00000000000000E+00  -1.03366552671279E-09
     -1.17904651306905E-34  -1.03366552671279E-09   4.17195445968823E-18   0.00000000000000E+00   0.00000000000000E+00
      0.00000000000000E+00   0.00000000000000E+00   0.00000000000000E+00   0.00000000000000E+00   0.00000000000000E+00
      3.15894780808022E-18   0.00000000000000E+00   0.00000000000000E+00   0.00000000000000E+00   0.00000000000000E+00
      1.03872133108146E-16   2.33316839033739E-34   1.03872133108146E-16  -1.08550203071719E-17   8.38785386277484E-03
      8.38785358605204E-03   0.00000000000000E+00   0.00000000000000E+00   1.03366542284066E-09  -1.15412187726833E-34
      1.03366542284066E-09   3.52411803940345E-18
      1.77757077255497E-01
      0.00000000000000E+00   2.87296815358428E-10   0.00000000000000E+00   0.00000000000000E+00  -1.07719343623896E-09
     -9.12996167763269E-35  -1.07719343623896E-09   4.17185557070098E-18   0.00000000000000E+00   0.00000000000000E+00
      0.00000000000000E+00   0.00000000000000E+00   0.00000000000000E+00   0.00000000000000E+00   0.00000000000000E+00
      3.15354813210735E-18   0.00000000000000E+00   0.00000000000000E+00   0.00000000000000E+00   0.00000000000000E+00
      9.91599885922999E-17   1.90166655454325E-34   9.91599885922999E-17  -1.08547758901243E-17   8.88785386277484E-03
      8.88785357439134E-03   0.00000000000000E+00   0.00000000000000E+00   1.07719333707897E-09  -9.88670386779985E-35
      1.07719333707897E-09   3.52937218731598E-18
      1.87757077255497E-01
      0.00000000000000E+00   2.98470235105090E-10   0.00000000000000E+00   0.00000000000000E+00  -1.11905438161168E-09
     -1.37680235004150E-34  -1.11905438161168E-09   4.17175669526913E-18   0.00000000000000E+00   0.00000000000000E+00
      0.00000000000000E+00   0.00000000000000E+00   0.00000000000000E+00   0.00000000000000E+00   0.00000000000000E+00
      3.14814925365214E-18   0.00000000000000E+00   0.00000000000000E+00   0.00000000000000E+00   0.00000000000000E+00
     -7.40547732726088E-20   2.28779945592632E-34  -7.40547732726086E-20  -1.08545333975445E-17   9.38785386277484E-03
      9.38785356317652E-03   0.00000000000000E+00   0.00000000000000E+00   1.11905438168573E-09  -9.10997105884819E-35
      1.11905438168573E-09   3.53462744862329E-18
      1.97757077255497E-01
      0.00000000000000E+00   3.09214171233802E-10   0.00000000000000E+00   0.00000000000000E+00  -1.15930370430640E-09