DF-ISE text

Info {
  version   = 1.0
  type      = xyplot
  datasets  = [
    "time"
    "source OuterVoltage" "source InnerVoltage" "source QuasiFermiPotential" "source DisplacementCurrent" "source eCurrent"
    "source hCurrent" "source TotalCurrent" "source Charge" "gate OuterVoltage" "gate InnerVoltage"
    "gate QuasiFermiPotential" "gate DisplacementCurrent" "gate eCurrent" "gate hCurrent" "gate TotalCurrent"
    "gate Charge" "substrate OuterVoltage" "substrate InnerVoltage" "substrate QuasiFermiPotential" "substrate DisplacementCurrent"
    "substrate eCurrent" "substrate hCurrent" "substrate TotalCurrent" "substrate Charge" "drain OuterVoltage"
    "drain InnerVoltage" "drain QuasiFermiPotential" "drain DisplacementCurrent" "drain eCurrent" "drain hCurrent"
    "drain TotalCurrent" "drain Charge" ]
  functions = [
    Time
    OuterVoltage InnerVoltage QuasiFermiPotential DisplacementCurrent eCurrent
    hCurrent TotalCurrent Charge OuterVoltage InnerVoltage
    QuasiFermiPotential DisplacementCurrent eCurrent hCurrent TotalCurrent
    Charge OuterVoltage InnerVoltage QuasiFermiPotential DisplacementCurrent
    eCurrent hCurrent TotalCurrent Charge OuterVoltage
    InnerVoltage QuasiFermiPotential DisplacementCurrent eCurrent hCurrent
    TotalCurrent Charge ]
}

Data {
      0.00000000000000E+00
      0.00000000000000E+00   0.00000000000000E+00   0.00000000000000E+00   0.00000000000000E+00   2.50070503808401E-20
     -1.40692132559531E-34   2.50070503808400E-20   4.90741788102295E-18   0.00000000000000E+00   0.00000000000000E+00
      0.00000000000000E+00   0.00000000000000E+00   0.00000000000000E+00   0.00000000000000E+00   0.00000000000000E+00
      3.63838790603228E-18   0.00000000000000E+00   0.00000000000000E+00   0.00000000000000E+00   0.00000000000000E+00
     -2.66276335091539E-20   3.30748704262780E-34  -2.66276335091536E-20  -1.26909608125677E-17   0.00000000000000E+00
      0.00000000000000E+00   0.00000000000000E+00   0.00000000000000E+00   1.62058312831379E-21  -1.90056571703249E-34
      1.62058312831360E-21   4.14515502551246E-18
      0.00000000000000E+00
      0.00000000000000E+00   0.00000000000000E+00   0.00000000000000E+00   0.00000000000000E+00  -2.70807281736762E-19
     -1.24949577064676E-34  -2.70807281736762E-19   4.90546405187503E-18   0.00000000000000E+00   0.00000000000000E+00
      0.00000000000000E+00   0.00000000000000E+00   0.00000000000000E+00   0.00000000000000E+00   0.00000000000000E+00
      3.63158345012648E-18   0.00000000000000E+00   0.00000000000000E+00   0.00000000000000E+00   0.00000000000000E+00
      2.08196811442759E-19   3.02083371955698E-34   2.08196811442759E-19  -1.26806135064679E-17   0.00000000000000E+00
      0.00000000000000E+00   0.00000000000000E+00   0.00000000000000E+00   6.26104702940031E-20  -1.77133794891022E-34
      6.26104702940029E-20   4.14356600446639E-18
      1.00000000000000E-03
      0.00000000000000E+00   2.47957046894926E-11   0.00000000000000E+00   0.00000000000000E+00  -1.14459997163602E-10
     -1.61101881199595E-34  -1.14459997163602E-10   4.90520711490567E-18   0.00000000000000E+00   0.00000000000000E+00
      0.00000000000000E+00   0.00000000000000E+00   0.00000000000000E+00   0.00000000000000E+00   0.00000000000000E+00
      3.62135351467508E-18   0.00000000000000E+00   0.00000000000000E+00   0.00000000000000E+00   0.00000000000000E+00
     -2.71341997485480E-20   3.29839981467556E-34  -2.71341997485476E-20  -1.26801290572633E-17   8.60000000000000E-04
      8.59999975115026E-04   0.00000000000000E+00   0.00000000000000E+00   1.14459997190737E-10  -1.68738100267961E-34
      1.14459997190737E-10   4.15356842768252E-18
      2.08666666666667E-03
      0.00000000000000E+00   5.01844219330502E-11   0.00000000000000E+00   0.00000000000000E+00  -2.31647365151663E-10
     -1.44954680600443E-34  -2.31647365151663E-10   4.90492797110353E-18   0.00000000000000E+00   0.00000000000000E+00
      0.00000000000000E+00   0.00000000000000E+00   0.00000000000000E+00   0.00000000000000E+00   0.00000000000000E+00
      3.61023981666006E-18   0.00000000000000E+00   0.00000000000000E+00   0.00000000000000E+00   0.00000000000000E+00
      1.30724658161229E-15   2.85839523524169E-34   1.30724658161229E-15  -1.26796097843561E-17   1.79453333333333E-03
      1.79453328296858E-03   0.00000000000000E+00   0.00000000000000E+00   2.31646057905082E-10  -1.40884842923726E-34
      2.31646057905082E-10   4.16444199659253E-18
      3.28200000000000E-03
      0.00000000000000E+00   7.62696981677320E-11   0.00000000000000E+00   0.00000000000000E+00  -3.52035411969801E-10
     -1.74010372740183E-34  -3.52035411969801E-10   4.90462098549307E-18   0.00000000000000E+00   0.00000000000000E+00
      0.00000000000000E+00   0.00000000000000E+00   0.00000000000000E+00   0.00000000000000E+00   0.00000000000000E+00
      3.59801810335745E-18   0.00000000000000E+00   0.00000000000000E+00   0.00000000000000E+00   0.00000000000000E+00
      9.62646889579940E-20   3.20480110456624E-34   9.62646889579943E-20  -1.26790470974462E-17   2.82252000000000E-03
      2.82251992345732E-03   0.00000000000000E+00   0.00000000000000E+00   3.52035411873536E-10  -1.46469737716441E-34
      3.52035411873536E-10   4.17640800859569E-18
      4.58889777777778E-03
      0.00000000000000E+00   1.02673741972834E-10   0.00000000000000E+00   0.00000000000000E+00  -4.73878612804407E-10
     -1.30459116424526E-34  -4.73878612804407E-10   4.90428543344768E-18   0.00000000000000E+00   0.00000000000000E+00
      0.00000000000000E+00   0.00000000000000E+00   0.00000000000000E+00   0.00000000000000E+00   0.00000000000000E+00
      3.58465965159377E-18   0.00000000000000E+00   0.00000000000000E+00   0.00000000000000E+00   0.00000000000000E+00
      2.25665709981609E-19   2.83331489098802E-34   2.25665709981609E-19  -1.26784419676570E-17   3.94645208888889E-03
      3.94645198584880E-03   0.00000000000000E+00   0.00000000000000E+00   4.73878612578741E-10  -1.52872372674276E-34
      4.73878612578741E-10   4.18949688261560E-18
      6.01777268148148E-03
      0.00000000000000E+00   1.29155602081950E-10   0.00000000000000E+00   0.00000000000000E+00  -5.96062798117527E-10
     -1.58044892159349E-34  -5.96062798117527E-10   4.90391866342248E-18   0.00000000000000E+00   0.00000000000000E+00
      0.00000000000000E+00   0.00000000000000E+00   0.00000000000000E+00   0.00000000000000E+00   0.00000000000000E+00
      3.57005905252755E-18   0.00000000000000E+00   0.00000000000000E+00   0.00000000000000E+00   0.00000000000000E+00
     -2.41159004569658E-19   2.91675779067334E-34  -2.41159004569658E-19  -1.26777922322630E-17   5.17528450607408E-03
      5.17528437645908E-03   0.00000000000000E+00   0.00000000000000E+00   5.96062798358686E-10  -1.33630886907985E-34
      5.96062798358686E-10   4.20381451631295E-18
      7.58000924286420E-03
      0.00000000000000E+00   1.55451082006016E-10   0.00000000000000E+00   0.00000000000000E+00  -7.17367754471883E-10
     -1.47005241879038E-34  -7.17367754471883E-10   4.90351777854402E-18   0.00000000000000E+00   0.00000000000000E+00
      0.00000000000000E+00   0.00000000000000E+00   0.00000000000000E+00   0.00000000000000E+00   0.00000000000000E+00
      3.55410116941722E-18   0.00000000000000E+00   0.00000000000000E+00   0.00000000000000E+00   0.00000000000000E+00
     -1.71744929862117E-20   2.68134704777220E-34  -1.71744929862114E-20  -1.26770958300239E-17   6.51880794886321E-03
      6.51880779286096E-03   0.00000000000000E+00   0.00000000000000E+00   7.17367754489058E-10  -1.21129462898182E-34
      7.17367754489058E-10   4.21947688206269E-18
      9.28805454997597E-03
      0.00000000000000E+00   1.81275867856864E-10   0.00000000000000E+00   0.00000000000000E+00  -8.36481748320383E-10
     -1.69456752175955E-34  -8.36481748320383E-10   4.90307961395645E-18   0.00000000000000E+00   0.00000000000000E+00
      0.00000000000000E+00   0.00000000000000E+00   0.00000000000000E+00   0.00000000000000E+00   0.00000000000000E+00
      3.53666024462384E-18   0.00000000000000E+00   0.00000000000000E+00   0.00000000000000E+00   0.00000000000000E+00
      2.04778874784681E-19   2.97591763239032E-34   2.04778874784681E-19  -1.26763508564756E-17   7.98772691297934E-03
      7.98772673106273E-03   0.00000000000000E+00   0.00000000000000E+00   8.36481748115603E-10  -1.28135011063078E-34
      8.36481748115603E-10   4.23661099789532E-18
      1.11555174190848E-02
      0.00000000000000E+00   2.06331721914082E-10   0.00000000000000E+00   0.00000000000000E+00  -9.52030182778344E-10
     -1.48027835776915E-34  -9.52030182778344E-10   4.90260071204225E-18   0.00000000000000E+00   0.00000000000000E+00
      0.00000000000000E+00   0.00000000000000E+00   0.00000000000000E+00   0.00000000000000E+00   0.00000000000000E+00
      3.51759892413479E-18   0.00000000000000E+00   0.00000000000000E+00   0.00000000000000E+00   0.00000000000000E+00
     -6.96107910253469E-21   2.60944054826624E-34  -6.96107910253443E-21  -1.26755556292493E-17   9.59374498041296E-03
      9.59374477335415E-03   0.00000000000000E+00   0.00000000000000E+00   9.52030182785306E-10  -1.12916219049708E-34
      9.52030182785306E-10   4.25535599307225E-18
      1.31972768226439E-02
      0.00000000000000E+00   2.30315093069130E-10   0.00000000000000E+00   0.00000000000000E+00  -1.06261566106342E-09
     -1.53484381104703E-34  -1.06261566106342E-09   4.90207729532571E-18   0.00000000000000E+00   0.00000000000000E+00
      0.00000000000000E+00   0.00000000000000E+00   0.00000000000000E+00   0.00000000000000E+00   0.00000000000000E+00
      3.49676719255950E-18   0.00000000000000E+00   0.00000000000000E+00   0.00000000000000E+00   0.00000000000000E+00
      2.93673506470445E-19   2.50444626559544E-34   2.93673506470446E-19  -1.26747087657051E-17   1.13496580674737E-02
      1.13496578363494E-02   0.00000000000000E+00   0.00000000000000E+00   1.06261566076975E-09  -9.69602454548410E-35
      1.06261566076975E-09   4.27586427781993E-18
      1.54296004372017E-02
      0.00000000000000E+00   2.52928338891557E-10   0.00000000000000E+00   0.00000000000000E+00  -1.16687038874990E-09
     -1.49178233539854E-34  -1.16687038874990E-09   4.90150523682744E-18   0.00000000000000E+00   0.00000000000000E+00
      0.00000000000000E+00   0.00000000000000E+00   0.00000000000000E+00   0.00000000000000E+00   0.00000000000000E+00
      3.47400120959895E-18   0.00000000000000E+00   0.00000000000000E+00   0.00000000000000E+00   0.00000000000000E+00
     -4.42839334026087E-19   2.53933166515452E-34  -4.42839334026087E-19  -1.26738092735822E-17   1.32694563759935E-02
      1.32694561221789E-02   0.00000000000000E+00   0.00000000000000E+00   1.16687038919274E-09  -1.04754932975598E-34
      1.16687038919274E-09   4.29830282715573E-18
      1.78702742557850E-02
      0.00000000000000E+00   2.73893736203505E-10   0.00000000000000E+00   0.00000000000000E+00  -1.26352077395955E-09
     -1.43141293034417E-34  -1.26352077395955E-09   4.90088002759435E-18   0.00000000000000E+00   0.00000000000000E+00
      0.00000000000000E+00   0.00000000000000E+00   0.00000000000000E+00   0.00000000000000E+00   0.00000000000000E+00
      3.44912203766031E-18   0.00000000000000E+00   0.00000000000000E+00   0.00000000000000E+00   0.00000000000000E+00
     -3.10357318435525E-19   2.49269466981478E-34  -3.10357318435525E-19  -1.26728566545276E-17   1.53684358599751E-02
      1.53684355851241E-02   0.00000000000000E+00   0.00000000000000E+00   1.26352077426990E-09  -1.06128173947060E-34
      1.26352077426990E-09   4.32285458927294E-18
      2.05387442974361E-02
      0.00000000000000E+00   2.92969780969314E-10   0.00000000000000E+00   0.00000000000000E+00  -1.35146270339983E-09
     -1.75768593906305E-34  -1.35146270339983E-09   4.90019674114230E-18   0.00000000000000E+00   0.00000000000000E+00
      0.00000000000000E+00   0.00000000000000E+00   0.00000000000000E+00   0.00000000000000E+00   0.00000000000000E+00
      3.42193425042132E-18   0.00000000000000E+00   0.00000000000000E+00   0.00000000000000E+00   0.00000000000000E+00
     -2.07096623210264E-19   2.69945826343432E-34  -2.07096623210263E-19  -1.26718510222186E-17   1.76633200957950E-02
      1.76633198018037E-02   0.00000000000000E+00   0.00000000000000E+00   1.35146270360693E-09  -9.41772324371266E-35
      1.35146270360693E-09   4.34972003065495E-18
      2.34562715429746E-02
      0.00000000000000E+00   3.09969055498572E-10   0.00000000000000E+00   0.00000000000000E+00  -1.42984442089642E-09
     -1.31715359398989E-34  -1.42984442089642E-09   4.89944999450538E-18   0.00000000000000E+00   0.00000000000000E+00
      0.00000000000000E+00   0.00000000000000E+00   0.00000000000000E+00   0.00000000000000E+00   0.00000000000000E+00
      3.39222441081889E-18   0.00000000000000E+00   0.00000000000000E+00   0.00000000000000E+00   0.00000000000000E+00
     -2.28742374624044E-19   2.15401127575452E-34  -2.28742374624043E-19  -1.26707932361671E-17   2.01723935269581E-02
      2.01723932159104E-02   0.00000000000000E+00   0.00000000000000E+00   1.42984442112517E-09  -8.36857681764630E-35
      1.42984442112517E-09   4.37911883084278E-18
      2.66461013314300E-02
      0.00000000000000E+00   3.24776894188117E-10   0.00000000000000E+00   0.00000000000000E+00  -1.49815234246035E-09
     -1.36403058739248E-34  -1.49815234246035E-09   4.89863390552431E-18   0.00000000000000E+00   0.00000000000000E+00
      0.00000000000000E+00   0.00000000000000E+00   0.00000000000000E+00   0.00000000000000E+00   0.00000000000000E+00
      3.35975940495172E-18   0.00000000000000E+00   0.00000000000000E+00   0.00000000000000E+00   0.00000000000000E+00
     -3.88872415820531E-19   2.22083430424746E-34  -3.88872415820530E-19  -1.26696850506126E-17   2.29156471450298E-02
      2.29156468191250E-02   0.00000000000000E+00   0.00000000000000E+00   1.49815234284922E-09  -8.56803716854977E-35
      1.49815234284922E-09   4.41129174013659E-18
      3.01336485668079E-02
      0.00000000000000E+00   3.37370062020263E-10   0.00000000000000E+00   0.00000000000000E+00  -1.55629659419006E-09
     -1.58491446162547E-34  -1.55629659419006E-09   4.89774204601949E-18   0.00000000000000E+00   0.00000000000000E+00
      0.00000000000000E+00   0.00000000000000E+00   0.00000000000000E+00   0.00000000000000E+00   0.00000000000000E+00
      3.32428461438316E-18   0.00000000000000E+00   0.00000000000000E+00   0.00000000000000E+00   0.00000000000000E+00
     -4.70154842861437E-19   2.30015608048066E-34  -4.70154842861437E-19  -1.26685292751962E-17   2.59149377674548E-02
      2.59149374289155E-02   0.00000000000000E+00   0.00000000000000E+00   1.55629659466021E-09  -7.15241618855197E-35
      1.55629659466021E-09   4.44650261479350E-18
      3.39467002108211E-02
      0.00000000000000E+00   3.47832061168588E-10   0.00000000000000E+00   0.00000000000000E+00  -1.60468131358406E-09
     -1.62259229309959E-34  -1.60468131358406E-09   4.89676739043018E-18   0.00000000000000E+00   0.00000000000000E+00
      0.00000000000000E+00   0.00000000000000E+00   0.00000000000000E+00   0.00000000000000E+00   0.00000000000000E+00
      3.28552191371082E-18   0.00000000000000E+00   0.00000000000000E+00   0.00000000000000E+00   0.00000000000000E+00
     -6.10781171639103E-19   2.24958445739901E-34  -6.10781171639103E-19  -1.26673299502092E-17   2.91941621813061E-02
      2.91941618322716E-02   0.00000000000000E+00   0.00000000000000E+00   1.60468131419485E-09  -6.26992164299418E-35
      1.60468131419485E-09   4.48504064606820E-18
      3.81156366749421E-02
      0.00000000000000E+00   3.56362146239223E-10   0.00000000000000E+00   0.00000000000000E+00  -1.64424468498402E-09
     -1.60099231660303E-34  -1.64424468498402E-09   4.89570225959727E-18   0.00000000000000E+00   0.00000000000000E+00
      0.00000000000000E+00   0.00000000000000E+00   0.00000000000000E+00   0.00000000000000E+00   0.00000000000000E+00
      3.24316747321899E-18   0.00000000000000E+00   0.00000000000000E+00   0.00000000000000E+00   0.00000000000000E+00
     -1.46286028718894E-18   2.11674915269825E-34  -1.46286028718894E-18  -1.26660925324255E-17   3.27794475404502E-02
      3.27794471828607E-02   0.00000000000000E+00   0.00000000000000E+00   1.64424468644688E-09  -5.15756836095213E-35
      1.64424468644688E-09   4.52722279960918E-18
      4.26736738757145E-02
      0.00000000000000E+00   3.63272818950515E-10   0.00000000000000E+00   0.00000000000000E+00  -1.67644574767477E-09
     -1.69574914796252E-34  -1.67644574767477E-09   4.89453825924738E-18   0.00000000000000E+00   0.00000000000000E+00
      0.00000000000000E+00   0.00000000000000E+00   0.00000000000000E+00   0.00000000000000E+00   0.00000000000000E+00
      3.19688934631134E-18   0.00000000000000E+00   0.00000000000000E+00   0.00000000000000E+00   0.00000000000000E+00
     -3.01711174431677E-18   2.12208807768125E-34  -3.01711174431677E-18  -1.26648240880403E-17   3.66993595331145E-02
      3.66993591685982E-02   0.00000000000000E+00   0.00000000000000E+00   1.67644575069188E-09  -4.26338929718725E-35
      1.67644575069188E-09   4.57339648248157E-18
      4.76571278818923E-02
      0.00000000000000E+00   3.68970654693726E-10   0.00000000000000E+00   0.00000000000000E+00  -1.70317333440134E-09
     -1.21024917839281E-34  -1.70317333440134E-09   4.89326621293882E-18   0.00000000000000E+00   0.00000000000000E+00
      0.00000000000000E+00   0.00000000000000E+00   0.00000000000000E+00   0.00000000000000E+00   0.00000000000000E+00
      3.14632482192565E-18   0.00000000000000E+00   0.00000000000000E+00   0.00000000000000E+00   0.00000000000000E+00
     -5.03609011166154E-18   1.64091243640946E-34  -5.03609011166154E-18  -1.26635334924692E-17   4.09851299784274E-02
      4.09851296082062E-02   0.00000000000000E+00   0.00000000000000E+00   1.70317333943742E-09  -4.30663258016645E-35
      1.70317333943742E-09   4.62394245760469E-18
      5.31057042619801E-02
      0.00000000000000E+00   3.73917992222230E-10   0.00000000000000E+00   0.00000000000000E+00  -1.72656774181161E-09
     -1.70833511897592E-34  -1.72656774181161E-09   4.89187608909355E-18   0.00000000000000E+00   0.00000000000000E+00
      0.00000000000000E+00   0.00000000000000E+00   0.00000000000000E+00   0.00000000000000E+00   0.00000000000000E+00
      3.09107752086995E-18   0.00000000000000E+00   0.00000000000000E+00   0.00000000000000E+00   0.00000000000000E+00
     -7.86060037516366E-18   2.02551665674842E-34  -7.86060037516366E-18  -1.26622316332799E-17   4.56709056653029E-02
      4.56709052901373E-02   0.00000000000000E+00   0.00000000000000E+00   1.72656774967220E-09  -3.17181537772498E-35
      1.72656774967220E-09   4.67927802331642E-18
      5.90628144375427E-02
      0.00000000000000E+00   3.78579098178470E-10   0.00000000000000E+00   0.00000000000000E+00  -1.74877383412317E-09
     -1.70052148080820E-34  -1.74877383412317E-09   4.89035692215599E-18   0.00000000000000E+00   0.00000000000000E+00
      0.00000000000000E+00   0.00000000000000E+00   0.00000000000000E+00   0.00000000000000E+00   0.00000000000000E+00
      3.03071422862163E-18   0.00000000000000E+00   0.00000000000000E+00   0.00000000000000E+00   0.00000000000000E+00
      6.44697929566685E-20   2.00372241776787E-34   6.44697929566687E-20  -1.26609316347415E-17   5.07940204162867E-02
      5.07940200364744E-02   0.00000000000000E+00   0.00000000000000E+00   1.74877383405870E-09  -3.03200936959673E-35
      1.74877383405870E-09   4.73986048396395E-18
      6.55362074949873E-02
      0.00000000000000E+00   3.83324348371034E-10   0.00000000000000E+00   0.00000000000000E+00  -1.77149392635293E-09
     -1.41280671602127E-34  -1.77149392635293E-09   4.88870684864906E-18   0.00000000000000E+00   0.00000000000000E+00
      0.00000000000000E+00   0.00000000000000E+00   0.00000000000000E+00   0.00000000000000E+00   0.00000000000000E+00
      2.96516346410926E-18   0.00000000000000E+00   0.00000000000000E+00   0.00000000000000E+00   0.00000000000000E+00
      1.08138550866354E-20   1.67399850025915E-34   1.08138550866356E-20  -1.26596565022526E-17   5.63611384456891E-02
      5.63611380611579E-02   0.00000000000000E+00   0.00000000000000E+00   1.77149392634212E-09  -2.61191784237881E-35
      1.77149392634212E-09   4.80578618949430E-18
      7.25706279507439E-02
      0.00000000000000E+00   3.88422716916148E-10   0.00000000000000E+00   0.00000000000000E+00  -1.79595657888151E-09
     -1.32166561326056E-34  -1.79595657888151E-09   4.88691458008665E-18   0.00000000000000E+00   0.00000000000000E+00
      0.00000000000000E+00   0.00000000000000E+00   0.00000000000000E+00   0.00000000000000E+00   0.00000000000000E+00
      2.89397919429479E-18   0.00000000000000E+00   0.00000000000000E+00   0.00000000000000E+00   0.00000000000000E+00
      1.64497001911574E-19   1.52550071438963E-34   1.64497001911575E-19  -1.26584231519349E-17   6.24107400376398E-02
      6.24107396480486E-02   0.00000000000000E+00   0.00000000000000E+00   1.79595657871701E-09  -2.03835101129072E-35
      1.79595657871701E-09   4.87752937755348E-18
      8.02146981793327E-02
      0.00000000000000E+00   3.94018339671818E-10   0.00000000000000E+00   0.00000000000000E+00  -1.82282380528744E-09
     -1.58303442263618E-34  -1.82282380528744E-09   4.88496785551748E-18   0.00000000000000E+00   0.00000000000000E+00
      0.00000000000000E+00   0.00000000000000E+00   0.00000000000000E+00   0.00000000000000E+00   0.00000000000000E+00
      2.81667680876573E-18   0.00000000000000E+00   0.00000000000000E+00   0.00000000000000E+00   0.00000000000000E+00
      4.50900733233088E-20   1.74344814682713E-34   4.50900733233090E-20  -1.26572509220710E-17   6.89846404342261E-02
      6.89846400390915E-02   0.00000000000000E+00   0.00000000000000E+00   1.82282380524235E-09  -1.60413724190954E-35
      1.82282380524235E-09   4.95560625778781E-18
      8.85212544943992E-02
      0.00000000000000E+00   4.00189691162673E-10   0.00000000000000E+00   0.00000000000000E+00  -1.85247120130299E-09
     -1.50143123233794E-34  -1.85247120130299E-09   4.88285335737480E-18   0.00000000000000E+00   0.00000000000000E+00
      0.00000000000000E+00   0.00000000000000E+00   0.00000000000000E+00   0.00000000000000E+00   0.00000000000000E+00
      2.73272978720893E-18   0.00000000000000E+00   0.00000000000000E+00   0.00000000000000E+00   0.00000000000000E+00
     -3.83177045427606E-19   1.61572376192689E-34  -3.83177045427606E-19  -1.26561617681822E-17   7.61282788651833E-02
      7.61282784639471E-02   0.00000000000000E+00   0.00000000000000E+00   1.85247120168617E-09  -1.14292529588945E-35
      1.85247120168617E-09   5.04057862359850E-18
      9.75477123567714E-02
      0.00000000000000E+00   4.06975316413843E-10   0.00000000000000E+00   0.00000000000000E+00  -1.88508822033146E-09
     -1.41909042479327E-34  -1.88508822033146E-09   4.88055662404740E-18   0.00000000000000E+00   0.00000000000000E+00
      0.00000000000000E+00   0.00000000000000E+00   0.00000000000000E+00   0.00000000000000E+00   0.00000000000000E+00
      2.64156610621503E-18   0.00000000000000E+00   0.00000000000000E+00   0.00000000000000E+00   0.00000000000000E+00
     -2.64631894827737E-20   1.50604352906369E-34  -2.64631894827735E-20  -1.26551804791896E-17   8.38910326268234E-02
      8.38910322188836E-02   0.00000000000000E+00   0.00000000000000E+00   1.88508822035793E-09  -8.69531042704286E-36
      1.88508822035793E-09   5.13305774892714E-18
      1.07356463233883E-01
      0.00000000000000E+00   4.14397129749707E-10   0.00000000000000E+00   0.00000000000000E+00  -1.92079205381274E-09
     -1.28422864254685E-34  -1.92079205381274E-09   4.87806194874105E-18   0.00000000000000E+00   0.00000000000000E+00
      0.00000000000000E+00   0.00000000000000E+00   0.00000000000000E+00   0.00000000000000E+00   0.00000000000000E+00
      2.54256426342502E-18   0.00000000000000E+00   0.00000000000000E+00   0.00000000000000E+00   0.00000000000000E+00
      3.31174937350126E-19   1.35010176653098E-34   3.31174937350126E-19  -1.26543347950154E-17   9.23265583811390E-02
      9.23265579658666E-02   0.00000000000000E+00   0.00000000000000E+00   1.92079205348156E-09  -6.58731239841290E-36
      1.92079205348156E-09   5.23370858284927E-18
      1.17356463233883E-01
      0.00000000000000E+00   4.22002198848727E-10   0.00000000000000E+00   0.00000000000000E+00  -1.95741844329973E-09
     -1.75938697199233E-34  -1.95741844329973E-09   4.87551971946464E-18   0.00000000000000E+00   0.00000000000000E+00
      0.00000000000000E+00   0.00000000000000E+00   0.00000000000000E+00   0.00000000000000E+00   0.00000000000000E+00
      2.44169267853967E-18   0.00000000000000E+00   0.00000000000000E+00   0.00000000000000E+00   0.00000000000000E+00
      4.53291914231503E-20   1.81590394478543E-34   4.53291914231504E-20  -1.26536905087674E-17   1.00926558381139E-01
      1.00926557958360E-01   0.00000000000000E+00   0.00000000000000E+00   1.95741844325440E-09  -5.65169727930995E-36
      1.95741844325440E-09   5.33647811076315E-18
      1.27356463233883E-01
      0.00000000000000E+00   4.29659165326755E-10   0.00000000000000E+00   0.00000000000000E+00  -1.99433804621823E-09
     -1.65471862040340E-34  -1.99433804621823E-09   4.87297849191294E-18   0.00000000000000E+00   0.00000000000000E+00
      0.00000000000000E+00   0.00000000000000E+00   0.00000000000000E+00   0.00000000000000E+00   0.00000000000000E+00
      2.34087619218615E-18   0.00000000000000E+00   0.00000000000000E+00   0.00000000000000E+00   0.00000000000000E+00
      3.60144777842959E-19   1.69326375819474E-34   3.60144777842959E-19  -1.26532486078487E-17   1.09526558381139E-01
      1.09526557950815E-01   0.00000000000000E+00   0.00000000000000E+00   1.99433804585809E-09  -3.85451377913308E-36
      1.99433804585809E-09   5.43939392374957E-18
      1.37356463233883E-01
      0.00000000000000E+00   4.37383660647815E-10   0.00000000000000E+00   0.00000000000000E+00  -2.03162298160134E-09
     -1.62423503147441E-34  -2.03162298160134E-09   4.87043818537512E-18   0.00000000000000E+00   0.00000000000000E+00
      0.00000000000000E+00   0.00000000000000E+00   0.00000000000000E+00   0.00000000000000E+00   0.00000000000000E+00
      2.24010954257467E-18   0.00000000000000E+00   0.00000000000000E+00   0.00000000000000E+00   0.00000000000000E+00
     -7.91862783250405E-20   1.65474113477487E-34  -7.91862783250404E-20  -1.26529932023644E-17   1.18126558381139E-01
      1.18126557943210E-01   0.00000000000000E+00   0.00000000000000E+00   2.03162298168053E-09  -3.05061033004624E-36
      2.03162298168053E-09   5.54244547441457E-18
      1.47356463233883E-01
      0.00000000000000E+00   4.45185632107195E-10   0.00000000000000E+00   0.00000000000000E+00  -2.06931846667964E-09
     -1.42021952329386E-34  -2.06931846667964E-09   4.86789873122091E-18   0.00000000000000E+00   0.00000000000000E+00
      0.00000000000000E+00   0.00000000000000E+00   0.00000000000000E+00   0.00000000000000E+00   0.00000000000000E+00
      2.13938817313425E-18   0.00000000000000E+00   0.00000000000000E+00   0.00000000000000E+00   0.00000000000000E+00
      7.48995115178594E-20   1.44094880401790E-34   7.48995115178595E-20  -1.26529100001002E-17   1.26726558381139E-01
      1.26726557935525E-01   0.00000000000000E+00   0.00000000000000E+00   2.06931846660475E-09  -2.07292807240408E-36
      2.06931846660475E-09   5.64562309574505E-18
      1.57356463233883E-01
      0.00000000000000E+00   4.53069360690146E-10   0.00000000000000E+00   0.00000000000000E+00  -2.10744357815408E-09
     -1.64545864532492E-34  -2.10744357815408E-09   4.86536006802718E-18   0.00000000000000E+00   0.00000000000000E+00
      0.00000000000000E+00   0.00000000000000E+00   0.00000000000000E+00   0.00000000000000E+00   0.00000000000000E+00
      2.03870808149043E-18   0.00000000000000E+00   0.00000000000000E+00   0.00000000000000E+00   0.00000000000000E+00
     -2.33222526419638E-21   1.66232459869076E-34  -2.33222526419621E-21  -1.26529860542023E-17   1.35326558381139E-01
      1.35326557927751E-01   0.00000000000000E+00   0.00000000000000E+00   2.10744357815641E-09  -1.68659533658433E-36
      2.10744357815641E-09   5.74891790468467E-18
      1.67356463233883E-01
      0.00000000000000E+00   4.61035644085218E-10   0.00000000000000E+00   0.00000000000000E+00  -2.14600158602135E-09
     -1.49143485329183E-34  -2.14600158602135E-09   4.86282213975033E-18   0.00000000000000E+00   0.00000000000000E+00
      0.00000000000000E+00   0.00000000000000E+00   0.00000000000000E+00   0.00000000000000E+00   0.00000000000000E+00
      1.93806571173000E-18   0.00000000000000E+00   0.00000000000000E+00   0.00000000000000E+00   0.00000000000000E+00
     -1.98913795908329E-19   1.50341805459298E-34  -1.98913795908329E-19  -1.26532095737506E-17   1.43926558381139E-01
      1.43926557919889E-01   0.00000000000000E+00   0.00000000000000E+00   2.14600158622026E-09  -1.19832013011509E-36
      2.14600158622026E-09   5.85232172227027E-18
      1.77356463233883E-01
      0.00000000000000E+00   4.69083665044334E-10   0.00000000000000E+00   0.00000000000000E+00  -2.18498859867051E-09
     -1.49620278142539E-34  -2.18498859867051E-09   4.86028489508081E-18   0.00000000000000E+00   0.00000000000000E+00
      0.00000000000000E+00   0.00000000000000E+00   0.00000000000000E+00   0.00000000000000E+00   0.00000000000000E+00
      1.83745789247835E-18   0.00000000000000E+00   0.00000000000000E+00   0.00000000000000E+00   0.00000000000000E+00
     -1.69378938553960E-19   1.50522675029135E-34  -1.69378938553960E-19  -1.26535697950062E-17   1.52526558381139E-01
      1.52526557911946E-01   0.00000000000000E+00   0.00000000000000E+00   2.18498859883989E-09  -9.02396886595642E-37
      2.18498859883989E-09   5.95582700744707E-18
      1.87356463233883E-01
      0.00000000000000E+00   4.77212260200823E-10   0.00000000000000E+00   0.00000000000000E+00  -2.22439956084791E-09