DF-ISE text

Info {
  version   = 1.0
  type      = xyplot
  datasets  = [
    "time"
    "source OuterVoltage" "source InnerVoltage" "source QuasiFermiPotential" "source DisplacementCurrent" "source eCurrent"
    "source hCurrent" "source TotalCurrent" "source Charge" "gate OuterVoltage" "gate InnerVoltage"
    "gate QuasiFermiPotential" "gate DisplacementCurrent" "gate eCurrent" "gate hCurrent" "gate TotalCurrent"
    "gate Charge" "substrate OuterVoltage" "substrate InnerVoltage" "substrate QuasiFermiPotential" "substrate DisplacementCurrent"
    "substrate eCurrent" "substrate hCurrent" "substrate TotalCurrent" "substrate Charge" "drain OuterVoltage"
    "drain InnerVoltage" "drain QuasiFermiPotential" "drain DisplacementCurrent" "drain eCurrent" "drain hCurrent"
    "drain TotalCurrent" "drain Charge" ]
  functions = [
    Time
    OuterVoltage InnerVoltage QuasiFermiPotential DisplacementCurrent eCurrent
    hCurrent TotalCurrent Charge OuterVoltage InnerVoltage
    QuasiFermiPotential DisplacementCurrent eCurrent hCurrent TotalCurrent
    Charge OuterVoltage InnerVoltage QuasiFermiPotential DisplacementCurrent
    eCurrent hCurrent TotalCurrent Charge OuterVoltage
    InnerVoltage QuasiFermiPotential DisplacementCurrent eCurrent hCurrent
    TotalCurrent Charge ]
}

Data {
      0.00000000000000E+00
      0.00000000000000E+00   0.00000000000000E+00   0.00000000000000E+00   0.00000000000000E+00   3.58209421606811E-22
     -1.51820079384215E-34   3.58209421606660E-22   4.99731572590395E-18   0.00000000000000E+00   0.00000000000000E+00
      0.00000000000000E+00   0.00000000000000E+00   0.00000000000000E+00   0.00000000000000E+00   0.00000000000000E+00
      3.87437288141063E-18   0.00000000000000E+00   0.00000000000000E+00   0.00000000000000E+00   0.00000000000000E+00
     -1.45212174293224E-21   3.04825760002236E-34  -1.45212174293193E-21  -1.29800550029800E-17   0.00000000000000E+00
      0.00000000000000E+00   0.00000000000000E+00   0.00000000000000E+00   1.09391232132542E-21  -1.53005680618021E-34
      1.09391232132527E-21   4.10836639566542E-18
      0.00000000000000E+00
      0.00000000000000E+00   0.00000000000000E+00   0.00000000000000E+00   0.00000000000000E+00  -1.78620232721258E-20
     -1.09502326153278E-34  -1.78620232721259E-20   4.99544572338726E-18   0.00000000000000E+00   0.00000000000000E+00
      0.00000000000000E+00   0.00000000000000E+00   0.00000000000000E+00   0.00000000000000E+00   0.00000000000000E+00
      3.86812211375875E-18   0.00000000000000E+00   0.00000000000000E+00   0.00000000000000E+00   0.00000000000000E+00
      1.14422535074876E-20   2.98109010381608E-34   1.14422535074879E-20  -1.29706103079796E-17   0.00000000000000E+00
      0.00000000000000E+00   0.00000000000000E+00   0.00000000000000E+00   6.41976976463816E-21  -1.88606684228330E-34
      6.41976976463797E-21   4.10704247083362E-18
      1.00000000000000E-03
      0.00000000000000E+00   2.37589823476577E-11   0.00000000000000E+00   0.00000000000000E+00  -1.08552471112069E-10
     -1.94751862988966E-34  -1.08552471112069E-10   4.99515793539811E-18   0.00000000000000E+00   0.00000000000000E+00
      0.00000000000000E+00   0.00000000000000E+00   0.00000000000000E+00   0.00000000000000E+00   0.00000000000000E+00
      3.85812923989745E-18   0.00000000000000E+00   0.00000000000000E+00   0.00000000000000E+00   0.00000000000000E+00
      1.92417542183340E-20   3.67251378429305E-34   1.92417542183343E-20  -1.29703434118812E-17   8.60000000000000E-04
      8.59999975960207E-04   0.00000000000000E+00   0.00000000000000E+00   1.08552471092827E-10  -1.72499515440339E-34
      1.08552471092827E-10   4.11705623658563E-18
      2.08666666666667E-03
      0.00000000000000E+00   4.80937904739966E-11   0.00000000000000E+00   0.00000000000000E+00  -2.19728685697308E-10
     -1.69967883097272E-34  -2.19728685697308E-10   4.99484525896741E-18   0.00000000000000E+00   0.00000000000000E+00
      0.00000000000000E+00   0.00000000000000E+00   0.00000000000000E+00   0.00000000000000E+00   0.00000000000000E+00
      3.84727281057376E-18   0.00000000000000E+00   0.00000000000000E+00   0.00000000000000E+00   0.00000000000000E+00
      4.68017647016195E-16   3.35595493679384E-34   4.68017647016195E-16  -1.29700590824387E-17   1.79453333333333E-03
      1.79453328467141E-03   0.00000000000000E+00   0.00000000000000E+00   2.19728217679661E-10  -1.65627610582112E-34
      2.19728217679661E-10   4.12794101289750E-18
      3.28200000000000E-03
      0.00000000000000E+00   7.31064196926054E-11   0.00000000000000E+00   0.00000000000000E+00  -3.33991309895311E-10
     -1.24193126265444E-34  -3.33991309895311E-10   4.99450137809359E-18   0.00000000000000E+00   0.00000000000000E+00
      0.00000000000000E+00   0.00000000000000E+00   0.00000000000000E+00   0.00000000000000E+00   0.00000000000000E+00
      3.83533368886612E-18   0.00000000000000E+00   0.00000000000000E+00   0.00000000000000E+00   0.00000000000000E+00
      5.17405620205503E-16   3.12772491691146E-34   5.17405620205503E-16  -1.29697530802370E-17   2.82252000000000E-03
      2.82251992603061E-03   0.00000000000000E+00   0.00000000000000E+00   3.33990792489691E-10  -1.88579365425702E-34
      3.33990792489691E-10   4.13991801327723E-18
      4.59686666666667E-03
      0.00000000000000E+00   9.85847849089957E-11   0.00000000000000E+00   0.00000000000000E+00  -4.50369356709767E-10
     -1.56187489913701E-34  -4.50369356709767E-10   4.99412318435337E-18   0.00000000000000E+00   0.00000000000000E+00
      0.00000000000000E+00   0.00000000000000E+00   0.00000000000000E+00   0.00000000000000E+00   0.00000000000000E+00
      3.82220416124652E-18   0.00000000000000E+00   0.00000000000000E+00   0.00000000000000E+00   0.00000000000000E+00
     -5.54087904353213E-21   3.15929228420625E-34  -5.54087904353182E-21  -1.29694245353668E-17   3.95330533333333E-03
      3.95330523358579E-03   0.00000000000000E+00   0.00000000000000E+00   4.50369356715307E-10  -1.59741738506924E-34
      4.50369356715307E-10   4.15309718976687E-18
      6.03445422222222E-03
      0.00000000000000E+00   1.24138746142246E-10   0.00000000000000E+00   0.00000000000000E+00  -5.67079719459770E-10
     -1.48669984133493E-34  -5.67079719459770E-10   4.99370978097241E-18   0.00000000000000E+00   0.00000000000000E+00
      0.00000000000000E+00   0.00000000000000E+00   0.00000000000000E+00   0.00000000000000E+00   0.00000000000000E+00
      3.80785333234289E-18   0.00000000000000E+00   0.00000000000000E+00   0.00000000000000E+00   0.00000000000000E+00
     -1.74043761462559E-20   2.82565055669091E-34  -1.74043761462556E-20  -1.29690748283455E-17   5.18963063111111E-03
      5.18963050550920E-03   0.00000000000000E+00   0.00000000000000E+00   5.67079719477174E-10  -1.33895071535598E-34
      5.67079719477174E-10   4.16751171503019E-18
      7.60621661629630E-03
      0.00000000000000E+00   1.49513261821108E-10   0.00000000000000E+00   0.00000000000000E+00  -6.82956198016608E-10
     -1.53189986162123E-34  -6.82956198016608E-10   4.99325789665097E-18   0.00000000000000E+00   0.00000000000000E+00
      0.00000000000000E+00   0.00000000000000E+00   0.00000000000000E+00   0.00000000000000E+00   0.00000000000000E+00
      3.79216791381166E-18   0.00000000000000E+00   0.00000000000000E+00   0.00000000000000E+00   0.00000000000000E+00
      4.49647758676310E-21   2.98727046316868E-34   4.49647758676340E-21  -1.29687036376811E-17   6.54134629001482E-03
      6.54134613874055E-03   0.00000000000000E+00   0.00000000000000E+00   6.82956198012112E-10  -1.45537060154744E-34
      6.82956198012112E-10   4.18327782721852E-18
      9.32467683381729E-03
      0.00000000000000E+00   1.74433816690666E-10   0.00000000000000E+00   0.00000000000000E+00  -7.96745161847419E-10
     -1.42818393813856E-34  -7.96745161847419E-10   4.99276395693523E-18   0.00000000000000E+00   0.00000000000000E+00
      0.00000000000000E+00   0.00000000000000E+00   0.00000000000000E+00   0.00000000000000E+00   0.00000000000000E+00
      3.77502415126673E-18   0.00000000000000E+00   0.00000000000000E+00   0.00000000000000E+00   0.00000000000000E+00
      6.53129965846932E-21   2.66357213427116E-34   6.53129965846958E-21  -1.29683108780586E-17   8.01922207708287E-03
      8.01922190059598E-03   0.00000000000000E+00   0.00000000000000E+00   7.96745161840888E-10  -1.23538819613260E-34
      7.96745161840888E-10   4.20052276985663E-18
      1.12035266716402E-02
      0.00000000000000E+00   1.98612157776114E-10   0.00000000000000E+00   0.00000000000000E+00  -9.07131225117850E-10
     -1.79569195941905E-34  -9.07131225117850E-10   4.99222405614157E-18   0.00000000000000E+00   0.00000000000000E+00
      0.00000000000000E+00   0.00000000000000E+00   0.00000000000000E+00   0.00000000000000E+00   0.00000000000000E+00
      3.75628686056129E-18   0.00000000000000E+00   0.00000000000000E+00   0.00000000000000E+00   0.00000000000000E+00
     -1.70242281968017E-20   3.11910235003532E-34  -1.70242281968014E-20  -1.29678967588137E-17   9.63503293761060E-03
      9.63503273666247E-03   0.00000000000000E+00   0.00000000000000E+00   9.07131225134874E-10  -1.32341039061628E-34
      9.07131225134874E-10   4.21938584211081E-18
      1.32577358276600E-02
      0.00000000000000E+00   2.21754570806622E-10   0.00000000000000E+00   0.00000000000000E+00  -1.01277527832917E-09
     -1.80794088893557E-34  -1.01277527832917E-09   4.99163392665179E-18   0.00000000000000E+00   0.00000000000000E+00
      0.00000000000000E+00   0.00000000000000E+00   0.00000000000000E+00   0.00000000000000E+00   0.00000000000000E+00
      3.73580837484698E-18   0.00000000000000E+00   0.00000000000000E+00   0.00000000000000E+00   0.00000000000000E+00
      2.32891224126471E-21   3.00580239172282E-34   2.32891224126501E-21  -1.29674618511014E-17   1.14016528117876E-02
      1.14016525874268E-02   0.00000000000000E+00   0.00000000000000E+00   1.01277527832684E-09  -1.19786150278725E-34
      1.01277527832684E-09   4.24001954960260E-18
      1.55036711715749E-02
      0.00000000000000E+00   2.43572652043379E-10   0.00000000000000E+00   0.00000000000000E+00  -1.11236442555194E-09
     -1.39757739940792E-34  -1.11236442555194E-09   4.99098890531825E-18   0.00000000000000E+00   0.00000000000000E+00
      0.00000000000000E+00   0.00000000000000E+00   0.00000000000000E+00   0.00000000000000E+00   0.00000000000000E+00
      3.71342739367087E-18   0.00000000000000E+00   0.00000000000000E+00   0.00000000000000E+00   0.00000000000000E+00
     -1.02899491783889E-20   2.70316033087365E-34  -1.02899491783887E-20  -1.29670071643193E-17   1.33331572075544E-02
      1.33331569611215E-02   0.00000000000000E+00   0.00000000000000E+00   1.11236442556223E-09  -1.30558293146573E-34
      1.11236442556223E-09   4.26259086533019E-18
      1.79592271475886E-02
      0.00000000000000E+00   2.63796689018060E-10   0.00000000000000E+00   0.00000000000000E+00  -1.20467281646035E-09
     -1.55782258811201E-34  -1.20467281646035E-09   4.99028389669555E-18   0.00000000000000E+00   0.00000000000000E+00
      0.00000000000000E+00   0.00000000000000E+00   0.00000000000000E+00   0.00000000000000E+00   0.00000000000000E+00
      3.68896772451701E-18   0.00000000000000E+00   0.00000000000000E+00   0.00000000000000E+00   0.00000000000000E+00
     -4.81792653895162E-21   2.64973560797059E-34  -4.81792653895135E-21  -1.29665342319105E-17   1.54449353469262E-02
      1.54449350800341E-02   0.00000000000000E+00   0.00000000000000E+00   1.20467281646517E-09  -1.09191301985858E-34
      1.20467281646517E-09   4.28728261069793E-18
      2.06439683480302E-02
      0.00000000000000E+00   2.82191320926971E-10   0.00000000000000E+00   0.00000000000000E+00  -1.28863349073545E-09
     -1.56761515233409E-34  -1.28863349073545E-09   4.98951333276994E-18   0.00000000000000E+00   0.00000000000000E+00
      0.00000000000000E+00   0.00000000000000E+00   0.00000000000000E+00   0.00000000000000E+00   0.00000000000000E+00
      3.66223690527872E-18   0.00000000000000E+00   0.00000000000000E+00   0.00000000000000E+00   0.00000000000000E+00
     -6.76898360337052E-21   2.65320248072336E-34  -6.76898360337025E-21  -1.29660452055340E-17   1.77538127793060E-02
      1.77538124938063E-02   0.00000000000000E+00   0.00000000000000E+00   1.28863349074222E-09  -1.08558732838926E-34
      1.28863349074222E-09   4.31429496748532E-18
      2.35792853938464E-02
      0.00000000000000E+00   2.98572610488200E-10   0.00000000000000E+00   0.00000000000000E+00  -1.36341657824384E-09
     -1.49445351151444E-34  -1.36341657824384E-09   4.98867112887380E-18   0.00000000000000E+00   0.00000000000000E+00
      0.00000000000000E+00   0.00000000000000E+00   0.00000000000000E+00   0.00000000000000E+00   0.00000000000000E+00
      3.63302469814848E-18   0.00000000000000E+00   0.00000000000000E+00   0.00000000000000E+00   0.00000000000000E+00
     -1.78224711567500E-20   2.62177265946910E-34  -1.78224711567497E-20  -1.29655429607513E-17   2.02781854387079E-02
      2.02781851366385E-02   0.00000000000000E+00   0.00000000000000E+00   1.36341657826166E-09  -1.12731914795466E-34
      1.36341657826166E-09   4.34384713372905E-18
      2.67885653639387E-02
      0.00000000000000E+00   3.12826255193372E-10   0.00000000000000E+00   0.00000000000000E+00  -1.42851223862563E-09
     -1.34326882790617E-34  -1.42851223862563E-09   4.98775063534595E-18   0.00000000000000E+00   0.00000000000000E+00
      0.00000000000000E+00   0.00000000000000E+00   0.00000000000000E+00   0.00000000000000E+00   0.00000000000000E+00
      3.60110143844973E-18   0.00000000000000E+00   0.00000000000000E+00   0.00000000000000E+00   0.00000000000000E+00
     -5.00966037388740E-20   2.25198174325212E-34  -5.00966037388738E-20  -1.29650312079953E-17   2.30381662129873E-02
      2.30381658965020E-02   0.00000000000000E+00   0.00000000000000E+00   1.42851223867573E-09  -9.08712915345952E-35
      1.42851223867573E-09   4.37617913419953E-18
      3.02973781312396E-02
      0.00000000000000E+00   3.24925508295384E-10   0.00000000000000E+00   0.00000000000000E+00  -1.48381219261875E-09
     -1.64748780173989E-34  -1.48381219261875E-09   4.98674458455803E-18   0.00000000000000E+00   0.00000000000000E+00
      0.00000000000000E+00   0.00000000000000E+00   0.00000000000000E+00   0.00000000000000E+00   0.00000000000000E+00
      3.56621622495423E-18   0.00000000000000E+00   0.00000000000000E+00   0.00000000000000E+00   0.00000000000000E+00
     -1.56436585002477E-20   2.33251809484188E-34  -1.56436585002475E-20  -1.29645146111311E-17   2.60557451928661E-02
      2.60557448641463E-02   0.00000000000000E+00   0.00000000000000E+00   1.48381219263439E-09  -6.85030293101996E-35
      1.48381219263439E-09   4.41155380161889E-18
      3.41336800901553E-02
      0.00000000000000E+00   3.34945737932173E-10   0.00000000000000E+00   0.00000000000000E+00  -1.52967576103251E-09
     -1.15155587116561E-34  -1.52967576103251E-09   4.98564503287701E-18   0.00000000000000E+00   0.00000000000000E+00
      0.00000000000000E+00   0.00000000000000E+00   0.00000000000000E+00   0.00000000000000E+00   0.00000000000000E+00
      3.52809493653635E-18   0.00000000000000E+00   0.00000000000000E+00   0.00000000000000E+00   0.00000000000000E+00
     -2.25983544524009E-20   1.75290395642379E-34  -2.25983544524007E-20  -1.29639989110771E-17   2.93549648775336E-02
      2.93549645386845E-02   0.00000000000000E+00   0.00000000000000E+00   1.52967576105510E-09  -6.01348085258179E-35
      1.52967576105510E-09   4.45025894166372E-18
      3.83280368985698E-02
      0.00000000000000E+00   3.43073420979282E-10   0.00000000000000E+00   0.00000000000000E+00  -1.56697002847888E-09
     -1.53232472804381E-34  -1.56697002847888E-09   4.98444329706180E-18   0.00000000000000E+00   0.00000000000000E+00
      0.00000000000000E+00   0.00000000000000E+00   0.00000000000000E+00   0.00000000000000E+00   0.00000000000000E+00
      3.48643805461302E-18   0.00000000000000E+00   0.00000000000000E+00   0.00000000000000E+00   0.00000000000000E+00
      1.28027350853591E-21   2.20712484448791E-34   1.28027350853613E-21  -1.29634910492077E-17   3.29621117327701E-02
      3.29621113857096E-02   0.00000000000000E+00   0.00000000000000E+00   1.56697002847760E-09  -6.74800116444094E-35
      1.56697002847760E-09   4.49260969753287E-18
      4.29138670091030E-02
      0.00000000000000E+00   3.49604682198664E-10   0.00000000000000E+00   0.00000000000000E+00  -1.59706139959060E-09
     -1.74115168299408E-34  -1.59706139959060E-09   4.98312988468972E-18   0.00000000000000E+00   0.00000000000000E+00
      0.00000000000000E+00   0.00000000000000E+00   0.00000000000000E+00   0.00000000000000E+00   0.00000000000000E+00
      3.44091827227523E-18   0.00000000000000E+00   0.00000000000000E+00   0.00000000000000E+00   0.00000000000000E+00
      7.19150654491764E-21   2.17561789493013E-34   7.19150654491786E-21  -1.29629992884829E-17   3.69059256278286E-02
      3.69059252741768E-02   0.00000000000000E+00   0.00000000000000E+00   1.59706139958341E-09  -4.34466211936046E-35
      1.59706139958341E-09   4.53895113151792E-18
      4.79277079299527E-02
      0.00000000000000E+00   3.54928341952988E-10   0.00000000000000E+00   0.00000000000000E+00  -1.62173665701751E-09
     -1.50113086675442E-34  -1.62173665701751E-09   4.98169441818059E-18   0.00000000000000E+00   0.00000000000000E+00
      0.00000000000000E+00   0.00000000000000E+00   0.00000000000000E+00   0.00000000000000E+00   0.00000000000000E+00
      3.39117787122731E-18   0.00000000000000E+00   0.00000000000000E+00   0.00000000000000E+00   0.00000000000000E+00
     -1.33910082962779E-20   2.08792877864128E-34  -1.33910082962777E-20  -1.29625333302068E-17   4.12178288197593E-02
      4.12178284607439E-02   0.00000000000000E+00   0.00000000000000E+00   1.62173665703091E-09  -5.86797911886862E-35
      1.62173665703091E-09   4.58966104079892E-18
      5.34095073367482E-02
      0.00000000000000E+00   3.59490704146438E-10   0.00000000000000E+00   0.00000000000000E+00  -1.64304134921839E-09
     -1.28865282060894E-34  -1.64304134921839E-09   4.98012555213211E-18   0.00000000000000E+00   0.00000000000000E+00
      0.00000000000000E+00   0.00000000000000E+00   0.00000000000000E+00   0.00000000000000E+00   0.00000000000000E+00
      3.33682584654468E-18   0.00000000000000E+00   0.00000000000000E+00   0.00000000000000E+00   0.00000000000000E+00
      1.57682370924593E-20   1.68898306251219E-34   1.57682370924594E-20  -1.29621044242554E-17   4.59321763096035E-02
      4.59321759460032E-02   0.00000000000000E+00   0.00000000000000E+00   1.64304134920263E-09  -4.00330241903254E-35
      1.64304134920263E-09   4.64515302557856E-18
      5.94029413548448E-02
      0.00000000000000E+00   3.63739562994028E-10   0.00000000000000E+00   0.00000000000000E+00  -1.66302231766668E-09
     -1.49533340669297E-34  -1.66302231766668E-09   4.97841088384368E-18   0.00000000000000E+00   0.00000000000000E+00
      0.00000000000000E+00   0.00000000000000E+00   0.00000000000000E+00   0.00000000000000E+00   0.00000000000000E+00
      3.27743476830138E-18   0.00000000000000E+00   0.00000000000000E+00   0.00000000000000E+00   0.00000000000000E+00
      2.02868431720112E-20   1.84466637124281E-34   2.02868431720114E-20  -1.29617254846568E-17   5.10865295651665E-02
      5.10865291973096E-02   0.00000000000000E+00   0.00000000000000E+00   1.66302231764640E-09  -3.49332964549847E-35
      1.66302231764640E-09   4.70587983251177E-18
      6.59158063211763E-02
      0.00000000000000E+00   3.68028120429587E-10   0.00000000000000E+00   0.00000000000000E+00  -1.68328195273259E-09
     -1.75349761436329E-34  -1.68328195273259E-09   4.97654828127210E-18   0.00000000000000E+00   0.00000000000000E+00
      0.00000000000000E+00   0.00000000000000E+00   0.00000000000000E+00   0.00000000000000E+00   0.00000000000000E+00
      3.21293296524694E-18   0.00000000000000E+00   0.00000000000000E+00   0.00000000000000E+00   0.00000000000000E+00
      3.53512227381508E-21   1.99809375588858E-34   3.53512227381528E-21  -1.29614128242961E-17   5.66875934362116E-02
      5.66875930640697E-02   0.00000000000000E+00   0.00000000000000E+00   1.68328195272906E-09  -2.44596141525292E-35
      1.68328195272906E-09   4.77193157777704E-18
      7.29931195845899E-02
      0.00000000000000E+00   3.72618380895193E-10   0.00000000000000E+00   0.00000000000000E+00  -1.70500868745614E-09
     -1.32084852370276E-34  -1.70500868745614E-09   4.97452496988542E-18   0.00000000000000E+00   0.00000000000000E+00
      0.00000000000000E+00   0.00000000000000E+00   0.00000000000000E+00   0.00000000000000E+00   0.00000000000000E+00
      3.14288008422785E-18   0.00000000000000E+00   0.00000000000000E+00   0.00000000000000E+00   0.00000000000000E+00
      4.51956873149813E-21   1.50586458304318E-34   4.51956873149828E-21  -1.29611813713173E-17   6.27740828427473E-02
      6.27740824660283E-02   0.00000000000000E+00   0.00000000000000E+00   1.70500868745162E-09  -1.85016059340421E-35
      1.70500868745162E-09   4.84377631720399E-18
      8.06837999974994E-02
      0.00000000000000E+00   3.77670375180835E-10   0.00000000000000E+00   0.00000000000000E+00  -1.72894086573685E-09
     -1.67698440082872E-34  -1.72894086573685E-09   4.97232707187123E-18   0.00000000000000E+00   0.00000000000000E+00
      0.00000000000000E+00   0.00000000000000E+00   0.00000000000000E+00   0.00000000000000E+00   0.00000000000000E+00
      3.06679759465367E-18   0.00000000000000E+00   0.00000000000000E+00   0.00000000000000E+00   0.00000000000000E+00
     -3.84194748920335E-21   1.84827799236449E-34  -3.84194748920317E-21  -1.29610476391282E-17   6.93880679978495E-02
      6.93880676161026E-02   0.00000000000000E+00   0.00000000000000E+00   1.72894086574069E-09  -1.71293591535768E-35
      1.72894086574069E-09   4.92192297260325E-18
      8.90410060461943E-02
      0.00000000000000E+00   3.83265372015583E-10   0.00000000000000E+00   0.00000000000000E+00  -1.75545547708863E-09
     -1.91519283729900E-34  -1.75545547708863E-09   4.96993951374231E-18   0.00000000000000E+00   0.00000000000000E+00
      0.00000000000000E+00   0.00000000000000E+00   0.00000000000000E+00   0.00000000000000E+00   0.00000000000000E+00
      2.98416551622942E-18   0.00000000000000E+00   0.00000000000000E+00   0.00000000000000E+00   0.00000000000000E+00
     -1.10905969822065E-20   2.05836643558437E-34  -1.10905969822063E-20  -1.29610298346056E-17   7.65752651997271E-02
      7.65752648124189E-02   0.00000000000000E+00   0.00000000000000E+00   1.75545547709972E-09  -1.43173598285368E-35
      1.75545547709972E-09   5.00692480463388E-18
      9.81225032857761E-02
      0.00000000000000E+00   3.89421626840648E-10   0.00000000000000E+00   0.00000000000000E+00  -1.78463655327569E-09
     -1.55744779268427E-34  -1.78463655327569E-09   4.96734592352627E-18   0.00000000000000E+00   0.00000000000000E+00
      0.00000000000000E+00   0.00000000000000E+00   0.00000000000000E+00   0.00000000000000E+00   0.00000000000000E+00
      2.89441884073638E-18   0.00000000000000E+00   0.00000000000000E+00   0.00000000000000E+00   0.00000000000000E+00
      1.86504152333309E-20   1.66119015721625E-34   1.86504152333311E-20  -1.29611479261570E-17   8.43853528257675E-02
      8.43853524323415E-02   0.00000000000000E+00   0.00000000000000E+00   1.78463655325704E-09  -1.03742364531984E-35
      1.78463655325704E-09   5.09938316189428E-18
      1.07991063619455E-01
      0.00000000000000E+00   3.96148109247723E-10   0.00000000000000E+00   0.00000000000000E+00  -1.81654158257055E-09
     -1.16259957787214E-34  -1.81654158257055E-09   4.96452851138351E-18   0.00000000000000E+00   0.00000000000000E+00
      0.00000000000000E+00   0.00000000000000E+00   0.00000000000000E+00   0.00000000000000E+00   0.00000000000000E+00
      2.79694352594942E-18   0.00000000000000E+00   0.00000000000000E+00   0.00000000000000E+00   0.00000000000000E+00
      2.90813045150241E-20   1.23656013415961E-34   2.90813045150242E-20  -1.29614235582405E-17   9.28723147127314E-02
      9.28723143126247E-02   0.00000000000000E+00   0.00000000000000E+00   1.81654158254147E-09  -7.39605562874660E-36
      1.81654158254147E-09   5.19995152090754E-18
      1.17991063619455E-01
      0.00000000000000E+00   4.02991243135650E-10   0.00000000000000E+00   0.00000000000000E+00  -1.84903442859137E-09
     -1.34565978047838E-34  -1.84903442859137E-09   4.96167449322259E-18   0.00000000000000E+00   0.00000000000000E+00
      0.00000000000000E+00   0.00000000000000E+00   0.00000000000000E+00   0.00000000000000E+00   0.00000000000000E+00
      2.69821665136499E-18   0.00000000000000E+00   0.00000000000000E+00   0.00000000000000E+00   0.00000000000000E+00
     -5.84888390940362E-21   1.39935722459573E-34  -5.84888390940348E-21  -1.29618443238410E-17   1.01472314712731E-01
      1.01472314305839E-01   0.00000000000000E+00   0.00000000000000E+00   1.84903442859722E-09  -5.36974441173457E-36
      1.84903442859722E-09   5.30195317925345E-18
      1.27991063619455E-01
      0.00000000000000E+00   4.09872011704337E-10   0.00000000000000E+00   0.00000000000000E+00  -1.88174051738151E-09
     -1.53384431530143E-34  -1.88174051738151E-09   4.95882131632601E-18   0.00000000000000E+00   0.00000000000000E+00
      0.00000000000000E+00   0.00000000000000E+00   0.00000000000000E+00   0.00000000000000E+00   0.00000000000000E+00
      2.59953169416135E-18   0.00000000000000E+00   0.00000000000000E+00   0.00000000000000E+00   0.00000000000000E+00
     -9.37422964007696E-21   1.57439428598046E-34  -9.37422964007680E-21  -1.29623936995797E-17   1.10072314712731E-01
      1.10072314299028E-01   0.00000000000000E+00   0.00000000000000E+00   1.88174051739088E-09  -4.05499706790338E-36
      1.88174051739088E-09   5.40404068909235E-18
      1.37991063619455E-01
      0.00000000000000E+00   4.16804343294829E-10   0.00000000000000E+00   0.00000000000000E+00  -1.91472228025093E-09
     -1.42683015636951E-34  -1.91472228025093E-09   4.95596891067733E-18   0.00000000000000E+00   0.00000000000000E+00
      0.00000000000000E+00   0.00000000000000E+00   0.00000000000000E+00   0.00000000000000E+00   0.00000000000000E+00
      2.50088428612197E-18   0.00000000000000E+00   0.00000000000000E+00   0.00000000000000E+00   0.00000000000000E+00
     -1.40851375013530E-20   1.45591336921180E-34  -1.40851375013528E-20  -1.29630594680413E-17   1.18672314712731E-01
      1.18672314292167E-01   0.00000000000000E+00   0.00000000000000E+00   1.91472228026502E-09  -2.90832128422829E-36
      1.91472228026502E-09   5.50620627124198E-18
      1.47991063619455E-01
      0.00000000000000E+00   4.23798782722707E-10   0.00000000000000E+00   0.00000000000000E+00  -1.94802781371678E-09
     -1.48170922566317E-34  -1.94802781371678E-09   4.95311721423217E-18   0.00000000000000E+00   0.00000000000000E+00
      0.00000000000000E+00   0.00000000000000E+00   0.00000000000000E+00   0.00000000000000E+00   0.00000000000000E+00
      2.40227064992505E-18   0.00000000000000E+00   0.00000000000000E+00   0.00000000000000E+00   0.00000000000000E+00
     -1.58094185925985E-20   1.50368285501494E-34  -1.58094185925984E-20  -1.29638307622141E-17   1.27272314712731E-01
      1.27272314285237E-01   0.00000000000000E+00   0.00000000000000E+00   1.94802781373259E-09  -2.19736293517709E-36
      1.94802781373259E-09   5.60844289805688E-18
      1.57991063619455E-01
      0.00000000000000E+00   4.30861351017018E-10   0.00000000000000E+00   0.00000000000000E+00  -1.98168470364742E-09
     -1.36938047584709E-34  -1.98168470364742E-09   4.95026617053296E-18   0.00000000000000E+00   0.00000000000000E+00
      0.00000000000000E+00   0.00000000000000E+00   0.00000000000000E+00   0.00000000000000E+00   0.00000000000000E+00
      2.30368748123075E-18   0.00000000000000E+00   0.00000000000000E+00   0.00000000000000E+00   0.00000000000000E+00
     -1.17721170541831E-20   1.38979440897986E-34  -1.17721170541830E-20  -1.29646978559585E-17   1.35872314712731E-01
      1.35872314278232E-01   0.00000000000000E+00   0.00000000000000E+00   1.98168470365919E-09  -2.04139331327760E-36
      1.98168470365919E-09   5.71074420419477E-18
      1.67991063619455E-01
      0.00000000000000E+00   4.37994806985718E-10   0.00000000000000E+00   0.00000000000000E+00  -2.01570518030828E-09
     -1.57849545661490E-34  -2.01570518030828E-09   4.94741572799148E-18   0.00000000000000E+00   0.00000000000000E+00
      0.00000000000000E+00   0.00000000000000E+00   0.00000000000000E+00   0.00000000000000E+00   0.00000000000000E+00
      2.20513186517289E-18   0.00000000000000E+00   0.00000000000000E+00   0.00000000000000E+00   0.00000000000000E+00
     -6.09440480558468E-21   1.59340491886561E-34  -6.09440480558452E-21  -1.29656520076049E-17   1.44472314712731E-01
      1.44472314271153E-01   0.00000000000000E+00   0.00000000000000E+00   2.01570518031437E-09  -1.49094622507071E-36
      2.01570518031437E-09   5.81310441444057E-18
      1.77991063619455E-01
      0.00000000000000E+00   4.45199572594721E-10   0.00000000000000E+00   0.00000000000000E+00  -2.05009098592352E-09
     -1.70636062029709E-34  -2.05009098592352E-09   4.94456583978797E-18   0.00000000000000E+00   0.00000000000000E+00
      0.00000000000000E+00   0.00000000000000E+00   0.00000000000000E+00   0.00000000000000E+00   0.00000000000000E+00
      2.10660123379880E-18   0.00000000000000E+00   0.00000000000000E+00   0.00000000000000E+00   0.00000000000000E+00
     -6.59884514136100E-21   1.71744554170806E-34  -6.59884514136083E-21  -1.29666853573846E-17   1.53072314712731E-01
      1.53072314264004E-01   0.00000000000000E+00   0.00000000000000E+00   2.05009098593012E-09  -1.10849214109719E-36
      2.05009098593012E-09   5.91551828379785E-18
      1.87991063619455E-01
      0.00000000000000E+00   4.52474863697922E-10   0.00000000000000E+00   0.00000000000000E+00  -2.08483870808553E-09