DF-ISE text

Info {
  version   = 1.0
  type      = xyplot
  datasets  = [
    "time"
    "source OuterVoltage" "source InnerVoltage" "source QuasiFermiPotential" "source DisplacementCurrent" "source eCurrent"
    "source hCurrent" "source TotalCurrent" "source Charge" "gate OuterVoltage" "gate InnerVoltage"
    "gate QuasiFermiPotential" "gate DisplacementCurrent" "gate eCurrent" "gate hCurrent" "gate TotalCurrent"
    "gate Charge" "substrate OuterVoltage" "substrate InnerVoltage" "substrate QuasiFermiPotential" "substrate DisplacementCurrent"
    "substrate eCurrent" "substrate hCurrent" "substrate TotalCurrent" "substrate Charge" "drain OuterVoltage"
    "drain InnerVoltage" "drain QuasiFermiPotential" "drain DisplacementCurrent" "drain eCurrent" "drain hCurrent"
    "drain TotalCurrent" "drain Charge" ]
  functions = [
    Time
    OuterVoltage InnerVoltage QuasiFermiPotential DisplacementCurrent eCurrent
    hCurrent TotalCurrent Charge OuterVoltage InnerVoltage
    QuasiFermiPotential DisplacementCurrent eCurrent hCurrent TotalCurrent
    Charge OuterVoltage InnerVoltage QuasiFermiPotential DisplacementCurrent
    eCurrent hCurrent TotalCurrent Charge OuterVoltage
    InnerVoltage QuasiFermiPotential DisplacementCurrent eCurrent hCurrent
    TotalCurrent Charge ]
}

Data {
      0.00000000000000E+00
      0.00000000000000E+00   0.00000000000000E+00   0.00000000000000E+00   0.00000000000000E+00  -2.16217972542869E-22
      6.70035596184121E-34  -2.16217972542198E-22   4.93362683243501E-18   0.00000000000000E+00   0.00000000000000E+00
      0.00000000000000E+00   0.00000000000000E+00   0.00000000000000E+00   0.00000000000000E+00   0.00000000000000E+00
      3.46983416309452E-18   0.00000000000000E+00   0.00000000000000E+00   0.00000000000000E+00   0.00000000000000E+00
      1.17983889985471E-21  -1.30115405091079E-33   1.17983889985341E-21  -1.25259248473624E-17   0.00000000000000E+00
      0.00000000000000E+00   0.00000000000000E+00   0.00000000000000E+00  -9.63620927311841E-22   6.31118454726668E-34
     -9.63620927311210E-22   4.12246385183290E-18
      0.00000000000000E+00
      0.00000000000000E+00   0.00000000000000E+00   0.00000000000000E+00   0.00000000000000E+00   5.34458431003442E-22
      6.46005102810939E-34   5.34458431004088E-22   4.93176745087775E-18   0.00000000000000E+00   0.00000000000000E+00
      0.00000000000000E+00   0.00000000000000E+00   0.00000000000000E+00   0.00000000000000E+00   0.00000000000000E+00
      3.46376049309213E-18   0.00000000000000E+00   0.00000000000000E+00   0.00000000000000E+00   0.00000000000000E+00
     -1.99462437714480E-21  -1.27803556572270E-33  -1.99462437714608E-21  -1.25166711562333E-17   0.00000000000000E+00
      0.00000000000000E+00   0.00000000000000E+00   0.00000000000000E+00   1.46016594614136E-21   6.32030462911762E-34
      1.46016594614199E-21   4.12114321226347E-18
      1.00000000000000E-03
      0.00000000000000E+00   1.67447533121557E-12   0.00000000000000E+00   0.00000000000000E+00  -7.75781158786963E-12
      6.46710467199565E-34  -7.75781158786963E-12   4.93174869986338E-18   0.00000000000000E+00   0.00000000000000E+00
      0.00000000000000E+00   0.00000000000000E+00   0.00000000000000E+00   0.00000000000000E+00   0.00000000000000E+00
      3.46317310753765E-18   0.00000000000000E+00   0.00000000000000E+00   0.00000000000000E+00   0.00000000000000E+00
     -1.01599944278881E-19  -1.24839610042503E-33  -1.01599944278882E-19  -1.25166511381058E-17   5.00000000000000E-05
      4.99999983042278E-05   0.00000000000000E+00   0.00000000000000E+00   7.75781168946958E-12   6.01685633225463E-34
      7.75781168946958E-12   4.12172933070482E-18
      2.09333333333333E-03
      0.00000000000000E+00   3.49967124663776E-12   0.00000000000000E+00   0.00000000000000E+00  -1.62138135692786E-11
      6.52332124989311E-34  -1.62138135692786E-11   4.93172819899653E-18   0.00000000000000E+00   0.00000000000000E+00
      0.00000000000000E+00   0.00000000000000E+00   0.00000000000000E+00   0.00000000000000E+00   0.00000000000000E+00
      3.46253090830554E-18   0.00000000000000E+00   0.00000000000000E+00   0.00000000000000E+00   0.00000000000000E+00
      5.21302689036422E-21  -1.25469042924145E-33   5.21302689036297E-21  -1.25166292732044E-17   1.04666666666667E-04
      1.04666663122505E-04   0.00000000000000E+00   0.00000000000000E+00   1.62138135640656E-11   6.02358304252143E-34
      1.62138135640656E-11   4.12237016590233E-18
      3.29600000000000E-03
      0.00000000000000E+00   5.50038919576168E-12   0.00000000000000E+00   0.00000000000000E+00  -2.54830254496017E-11
      6.41751915362113E-34  -2.54830254496017E-11   4.93170564833651E-18   0.00000000000000E+00   0.00000000000000E+00
      0.00000000000000E+00   0.00000000000000E+00   0.00000000000000E+00   0.00000000000000E+00   0.00000000000000E+00
      3.46182449996815E-18   0.00000000000000E+00   0.00000000000000E+00   0.00000000000000E+00   0.00000000000000E+00
     -6.10219107922266E-21  -1.27465367998988E-33  -6.10219107922394E-21  -1.25166052478349E-17   1.64800000000000E-04
      1.64799994429683E-04   0.00000000000000E+00   0.00000000000000E+00   2.54830254557039E-11   6.32901764627762E-34
      2.54830254557039E-11   4.12307509953022E-18
      4.61893333333333E-03
      0.00000000000000E+00   7.69255792090083E-12   0.00000000000000E+00   0.00000000000000E+00  -3.56391618452183E-11
      6.39885448762278E-34  -3.56391618452183E-11   4.93168084296642E-18   0.00000000000000E+00   0.00000000000000E+00
      0.00000000000000E+00   0.00000000000000E+00   0.00000000000000E+00   0.00000000000000E+00   0.00000000000000E+00
      3.46104746387392E-18   0.00000000000000E+00   0.00000000000000E+00   0.00000000000000E+00   0.00000000000000E+00
     -9.72390054127269E-21  -1.28296308380302E-33  -9.72390054127397E-21  -1.25165788513889E-17   2.30946666666667E-04
      2.30946658876316E-04   0.00000000000000E+00   0.00000000000000E+00   3.56391618549422E-11   6.43077635040738E-34
      3.56391618549422E-11   4.12385054454855E-18
      6.07416000000000E-03
      0.00000000000000E+00   1.00933818793424E-11   0.00000000000000E+00   0.00000000000000E+00  -4.67618342426274E-11
      6.08920908870392E-34  -4.67618342426274E-11   4.93165355749056E-18   0.00000000000000E+00   0.00000000000000E+00
      0.00000000000000E+00   0.00000000000000E+00   0.00000000000000E+00   0.00000000000000E+00   0.00000000000000E+00
      3.46019273997616E-18   0.00000000000000E+00   0.00000000000000E+00   0.00000000000000E+00   0.00000000000000E+00
      4.52708744058196E-20  -1.18918003110153E-33   4.52708744058184E-20  -1.25165498533308E-17   3.03708000000000E-04
      3.03707989778314E-04   0.00000000000000E+00   0.00000000000000E+00   4.67618341973566E-11   5.80259122231138E-34
      4.67618341973566E-11   4.12470355586404E-18
      7.67490933333333E-03
      0.00000000000000E+00   1.27213378728981E-11   0.00000000000000E+00   0.00000000000000E+00  -5.89367731017179E-11
      6.37363819828673E-34  -5.89367731017179E-11   4.93162354398934E-18   0.00000000000000E+00   0.00000000000000E+00
      0.00000000000000E+00   0.00000000000000E+00   0.00000000000000E+00   0.00000000000000E+00   0.00000000000000E+00
      3.45925256279083E-18   0.00000000000000E+00   0.00000000000000E+00   0.00000000000000E+00   0.00000000000000E+00
      3.41844155767844E-20  -1.24762768451352E-33   3.41844155767831E-20  -1.25165180014400E-17   3.83745466666667E-04
      3.83745453783624E-04   0.00000000000000E+00   0.00000000000000E+00   5.89367730675335E-11   6.10263864684846E-34
      5.89367730675335E-11   4.12564189465984E-18
      9.43573360000000E-03
      0.00000000000000E+00   1.55963418851336E-11   0.00000000000000E+00   0.00000000000000E+00  -7.22560352355457E-11
      6.58878660280449E-34  -7.22560352355457E-11   4.93159052977004E-18   0.00000000000000E+00   0.00000000000000E+00
      0.00000000000000E+00   0.00000000000000E+00   0.00000000000000E+00   0.00000000000000E+00   0.00000000000000E+00
      3.45821839097004E-18   0.00000000000000E+00   0.00000000000000E+00   0.00000000000000E+00   0.00000000000000E+00
      1.04156200188951E-21  -1.27212712120677E-33   1.04156200188824E-21  -1.25164830199264E-17   4.71786680000000E-04
      4.71786664205432E-04   0.00000000000000E+00   0.00000000000000E+00   7.22560352345042E-11   6.13248460926323E-34
      7.22560352345042E-11   4.12667409918632E-18
      1.13726402933333E-02
      0.00000000000000E+00   1.87396429122221E-11   0.00000000000000E+00   0.00000000000000E+00  -8.68181651107203E-11
      6.42791229465670E-34  -8.68181651107203E-11   4.93155421489360E-18   0.00000000000000E+00   0.00000000000000E+00
      0.00000000000000E+00   0.00000000000000E+00   0.00000000000000E+00   0.00000000000000E+00   0.00000000000000E+00
      3.45708082985707E-18   0.00000000000000E+00   0.00000000000000E+00   0.00000000000000E+00   0.00000000000000E+00
      2.46424868106186E-20  -1.24660823041837E-33   2.46424868106174E-20  -1.25164446074154E-17   5.68632014666667E-04
      5.68631995688852E-04   0.00000000000000E+00   0.00000000000000E+00   8.68181650860778E-11   6.03817000952697E-34
      8.68181650860778E-11   4.12780956266468E-18
      1.35032376560000E-02
      0.00000000000000E+00   2.21739670496429E-11   0.00000000000000E+00   0.00000000000000E+00  -1.02728286650371E-10
      6.52576887433497E-34  -1.02728286650371E-10   4.93151426945467E-18   0.00000000000000E+00   0.00000000000000E+00
      0.00000000000000E+00   0.00000000000000E+00   0.00000000000000E+00   0.00000000000000E+00   0.00000000000000E+00
      3.45582954632583E-18   0.00000000000000E+00   0.00000000000000E+00   0.00000000000000E+00   0.00000000000000E+00
      8.83145173519386E-20  -1.26724818849850E-33   8.83145173519373E-20  -1.25164024348020E-17   6.75161882800000E-04
      6.75161860344235E-04   0.00000000000000E+00   0.00000000000000E+00   1.02728286562056E-10   6.14671301065008E-34
      1.02728286562056E-10   4.12905861902149E-18
      1.58468947549333E-02
      0.00000000000000E+00   2.59234264900557E-11   0.00000000000000E+00   0.00000000000000E+00  -1.20098102564239E-10
      6.41292049649834E-34  -1.20098102564239E-10   4.93147033059056E-18   0.00000000000000E+00   0.00000000000000E+00
      0.00000000000000E+00   0.00000000000000E+00   0.00000000000000E+00   0.00000000000000E+00   0.00000000000000E+00
      3.45445317513825E-18   0.00000000000000E+00   0.00000000000000E+00   0.00000000000000E+00   0.00000000000000E+00
      1.13474238705287E-19  -1.24508173053056E-33   1.13474238705286E-19  -1.25163561429741E-17   7.92344737746667E-04
      7.92344711493805E-04   0.00000000000000E+00   0.00000000000000E+00   1.20098102450765E-10   6.03789680880732E-34
      1.20098102450765E-10   4.13043263724524E-18
      1.84249175637600E-02
      0.00000000000000E+00   3.00135506999553E-11   0.00000000000000E+00   0.00000000000000E+00  -1.39045771973385E-10
      6.38715218495663E-34  -1.39045771973385E-10   4.93142199919251E-18   0.00000000000000E+00   0.00000000000000E+00
      0.00000000000000E+00   0.00000000000000E+00   0.00000000000000E+00   0.00000000000000E+00   0.00000000000000E+00
      3.45293921597947E-18   0.00000000000000E+00   0.00000000000000E+00   0.00000000000000E+00   0.00000000000000E+00
      1.98569899663032E-19  -1.25626259393218E-33   1.98569899663031E-19  -1.25163053404094E-17   9.21245878188001E-04
      9.21245847793055E-04   0.00000000000000E+00   0.00000000000000E+00   1.39045771774815E-10   6.17547375436521E-34
      1.39045771774815E-10   4.13194412523746E-18
      2.12607426534693E-02
      0.00000000000000E+00   3.44712198533018E-11   0.00000000000000E+00   0.00000000000000E+00  -1.59695632100968E-10
      6.75557484387330E-34  -1.59695632100968E-10   4.93136883628920E-18   0.00000000000000E+00   0.00000000000000E+00
      0.00000000000000E+00   0.00000000000000E+00   0.00000000000000E+00   0.00000000000000E+00   0.00000000000000E+00
      3.45127392024644E-18   0.00000000000000E+00   0.00000000000000E+00   0.00000000000000E+00   0.00000000000000E+00
      2.79992939635066E-19  -1.26807207926293E-33   2.79992939635064E-19  -1.25162496006553E-17   1.06303713267347E-03
      1.06303709776425E-03   0.00000000000000E+00   0.00000000000000E+00   1.59695631820976E-10   5.92514594875600E-34
      1.59695631820976E-10   4.13360684411964E-18
      2.43801502521496E-02
      0.00000000000000E+00   3.93245055778023E-11   0.00000000000000E+00   0.00000000000000E+00  -1.82177727604827E-10
      6.51805806390535E-34  -1.82177727604827E-10   4.93131035907037E-18   0.00000000000000E+00   0.00000000000000E+00
      0.00000000000000E+00   0.00000000000000E+00   0.00000000000000E+00   0.00000000000000E+00   0.00000000000000E+00
      3.44944216657533E-18   0.00000000000000E+00   0.00000000000000E+00   0.00000000000000E+00   0.00000000000000E+00
     -2.17984847914957E-18  -1.25052991766779E-33  -2.17984847914957E-18  -1.25161884597015E-17   1.21900751260748E-03
      1.21900747278333E-03   0.00000000000000E+00   0.00000000000000E+00   1.82177729784675E-10   5.98724111277251E-34
      1.82177729784675E-10   4.13543593405579E-18
      2.78114986106979E-02
      0.00000000000000E+00   4.46026052311537E-11   0.00000000000000E+00   0.00000000000000E+00  -2.06627103916195E-10
      6.43208990655324E-34  -2.06627103916195E-10   4.93124603651482E-18   0.00000000000000E+00   0.00000000000000E+00
      0.00000000000000E+00   0.00000000000000E+00   0.00000000000000E+00   0.00000000000000E+00   0.00000000000000E+00
      3.44742732399245E-18   0.00000000000000E+00   0.00000000000000E+00   0.00000000000000E+00   0.00000000000000E+00
      7.00069334190269E-19  -1.22383886677207E-33   7.00069334190268E-19  -1.25161214132660E-17   1.39057493053490E-03
      1.39057488536562E-03   0.00000000000000E+00   0.00000000000000E+00   2.06627103216125E-10   5.80629876116749E-34
      2.06627103216125E-10   4.13744805275872E-18
      3.15859818051010E-02
      0.00000000000000E+00   5.03355815338523E-11   0.00000000000000E+00   0.00000000000000E+00  -2.33182789270967E-10
      6.54340782707734E-34  -2.33182789270967E-10   4.93117528458377E-18   0.00000000000000E+00   0.00000000000000E+00
      0.00000000000000E+00   0.00000000000000E+00   0.00000000000000E+00   0.00000000000000E+00   0.00000000000000E+00
      3.44521110147328E-18   0.00000000000000E+00   0.00000000000000E+00   0.00000000000000E+00   0.00000000000000E+00
      1.02382007871441E-18  -1.22882641002236E-33   1.02382007871441E-18  -1.25160479140282E-17   1.57929909025505E-03
      1.57929903928001E-03   0.00000000000000E+00   0.00000000000000E+00   2.33182788247147E-10   5.74485627314631E-34
      2.33182788247147E-10   4.13966152797116E-18
      3.57379133189445E-02
      0.00000000000000E+00   5.65540625992263E-11   0.00000000000000E+00   0.00000000000000E+00  -2.61986502712164E-10
      6.30514473463154E-34  -2.61986502712164E-10   4.93109746093558E-18   0.00000000000000E+00   0.00000000000000E+00
      0.00000000000000E+00   0.00000000000000E+00   0.00000000000000E+00   0.00000000000000E+00   0.00000000000000E+00
      3.44277338253719E-18   0.00000000000000E+00   0.00000000000000E+00   0.00000000000000E+00   0.00000000000000E+00
      1.46701441520310E-18  -1.20914927109585E-33   1.46701441520310E-18  -1.25159673688096E-17   1.78689566594722E-03
      1.78689560867476E-03   0.00000000000000E+00   0.00000000000000E+00   2.61986501245149E-10   5.78634797632694E-34
      2.61986501245149E-10   4.14209652533682E-18
      4.03050379841723E-02
      0.00000000000000E+00   6.32889166850999E-11   0.00000000000000E+00   0.00000000000000E+00  -2.93180893888566E-10
      6.48399185467870E-34  -2.93180893888566E-10   4.93101185911602E-18   0.00000000000000E+00   0.00000000000000E+00
      0.00000000000000E+00   0.00000000000000E+00   0.00000000000000E+00   0.00000000000000E+00   0.00000000000000E+00
      3.44009204344295E-18   0.00000000000000E+00   0.00000000000000E+00   0.00000000000000E+00   0.00000000000000E+00
      5.50844086050251E-18  -1.23323506093545E-33   5.50844086050251E-18  -1.25158791357957E-17   2.01525189920861E-03
      2.01525183511581E-03   0.00000000000000E+00   0.00000000000000E+00   2.93180888380125E-10   5.84835875467581E-34
      2.93180888380125E-10   4.14477523323671E-18
      4.53288751159228E-02
      0.00000000000000E+00   7.05706985975339E-11   0.00000000000000E+00   0.00000000000000E+00  -3.26907286859657E-10
      6.25357783109684E-34  -3.26907286859657E-10   4.93091770217149E-18   0.00000000000000E+00   0.00000000000000E+00
      0.00000000000000E+00   0.00000000000000E+00   0.00000000000000E+00   0.00000000000000E+00   0.00000000000000E+00
      3.43714275334946E-18   0.00000000000000E+00   0.00000000000000E+00   0.00000000000000E+00   0.00000000000000E+00
     -2.46796711128709E-18  -1.23027208723417E-33  -2.46796711128709E-18  -1.25157825218428E-17   2.26644375579614E-03
      2.26644368432912E-03   0.00000000000000E+00   0.00000000000000E+00   3.26907289327624E-10   6.04914304124491E-34
      3.26907289327624E-10   4.14772206632187E-18
      5.08550959608485E-02
      0.00000000000000E+00   7.84291601330977E-11   0.00000000000000E+00   0.00000000000000E+00  -3.63302943387383E-10
      6.56720513403226E-34  -3.63302943387383E-10   4.93081413562799E-18   0.00000000000000E+00   0.00000000000000E+00
      0.00000000000000E+00   0.00000000000000E+00   0.00000000000000E+00   0.00000000000000E+00   0.00000000000000E+00
      3.43389875465760E-18   0.00000000000000E+00   0.00000000000000E+00   0.00000000000000E+00   0.00000000000000E+00
      3.95849289648267E-18  -1.22512959237328E-33   3.95849289648267E-18  -1.25156767799328E-17   2.54275479804242E-03
      2.54275471861721E-03   0.00000000000000E+00   0.00000000000000E+00   3.63302939428890E-10   5.68409078970057E-34
      3.63302939428890E-10   4.15096388964721E-18
      5.69339388902666E-02
      0.00000000000000E+00   8.68924150501118E-11   0.00000000000000E+00   0.00000000000000E+00  -4.02497656338850E-10
      6.78261376999598E-34  -4.02497656338850E-10   4.93070021977346E-18   0.00000000000000E+00   0.00000000000000E+00
      0.00000000000000E+00   0.00000000000000E+00   0.00000000000000E+00   0.00000000000000E+00   0.00000000000000E+00
      3.43033062158305E-18   0.00000000000000E+00   0.00000000000000E+00   0.00000000000000E+00   0.00000000000000E+00
      6.04260087789538E-18  -1.22002242969447E-33   6.04260087789538E-18  -1.25155611068721E-17   2.84669694451333E-03
      2.84669685651750E-03   0.00000000000000E+00   0.00000000000000E+00   4.02497650296250E-10   5.41761052694871E-34
      4.02497650296250E-10   4.15453026551558E-18
      6.36206661126266E-02
      0.00000000000000E+00   9.59860922433183E-11   0.00000000000000E+00   0.00000000000000E+00  -4.44609687763732E-10
      6.28408076843384E-34  -4.44609687763732E-10   4.93057492117472E-18   0.00000000000000E+00   0.00000000000000E+00
      0.00000000000000E+00   0.00000000000000E+00   0.00000000000000E+00   0.00000000000000E+00   0.00000000000000E+00
      3.42640599483371E-18   0.00000000000000E+00   0.00000000000000E+00   0.00000000000000E+00   0.00000000000000E+00
      8.73580190288381E-18  -1.16380645513964E-33   8.73580190288381E-18  -1.25154346413749E-17   3.18103330563133E-03
      3.18103320842645E-03   0.00000000000000E+00   0.00000000000000E+00   4.44609679027930E-10   5.35398378296257E-34
      4.44609679027930E-10   4.15845372536646E-18
      7.09760660572226E-02
      0.00000000000000E+00   1.05732328822221E-10   0.00000000000000E+00   0.00000000000000E+00  -4.89740901889158E-10
      6.30837790896223E-34  -4.89740901889158E-10   4.93043710335431E-18   0.00000000000000E+00   0.00000000000000E+00
      0.00000000000000E+00   0.00000000000000E+00   0.00000000000000E+00   0.00000000000000E+00   0.00000000000000E+00
      3.42208929004495E-18   0.00000000000000E+00   0.00000000000000E+00   0.00000000000000E+00   0.00000000000000E+00
      1.26746817295080E-17  -1.19466429663451E-33   1.26746817295080E-17  -1.25152964626774E-17   3.54880330286113E-03
      3.54880319578639E-03   0.00000000000000E+00   0.00000000000000E+00   4.89740889214476E-10   5.63826505738286E-34
      4.89740889214476E-10   4.16277006927816E-18
      7.90670059962782E-02
      0.00000000000000E+00   1.16148500294398E-10   0.00000000000000E+00   0.00000000000000E+00  -5.37971131762446E-10
      6.59856697281952E-34  -5.37971131762446E-10   4.93028551654315E-18   0.00000000000000E+00   0.00000000000000E+00
      0.00000000000000E+00   0.00000000000000E+00   0.00000000000000E+00   0.00000000000000E+00   0.00000000000000E+00
      3.41734137738099E-18   0.00000000000000E+00   0.00000000000000E+00   0.00000000000000E+00   0.00000000000000E+00
      1.50857005720987E-17  -1.19288047912964E-33   1.50857005720987E-17  -1.25151455898445E-17   3.95335029981391E-03
      3.95335018219088E-03   0.00000000000000E+00   0.00000000000000E+00   5.37971116676745E-10   5.33023781847691E-34
      5.37971116676745E-10   4.16751869592030E-18
      8.79670399292394E-02
      0.00000000000000E+00   1.27245864802360E-10   0.00000000000000E+00   0.00000000000000E+00  -5.89351705632545E-10
      6.55564298911161E-34  -5.89351705632545E-10   4.93011878641919E-18   0.00000000000000E+00   0.00000000000000E+00
      0.00000000000000E+00   0.00000000000000E+00   0.00000000000000E+00   0.00000000000000E+00   0.00000000000000E+00
      3.41211922949093E-18   0.00000000000000E+00   0.00000000000000E+00   0.00000000000000E+00   0.00000000000000E+00
      2.66647463369370E-17  -1.16885640685701E-33   2.66647463369370E-17  -1.25149809820097E-17   4.39835199646197E-03
      4.39835186760083E-03   0.00000000000000E+00   0.00000000000000E+00   5.89351678967799E-10   5.13292107945847E-34
      5.89351678967799E-10   4.17274296609957E-18
      9.77570772554967E-02
      0.00000000000000E+00   1.39027970586370E-10   0.00000000000000E+00   0.00000000000000E+00  -6.43898154544818E-10
      6.12802494977672E-34  -6.43898154544818E-10   4.92993540173133E-18   0.00000000000000E+00   0.00000000000000E+00
      0.00000000000000E+00   0.00000000000000E+00   0.00000000000000E+00   0.00000000000000E+00   0.00000000000000E+00
      3.40637553471865E-18   0.00000000000000E+00   0.00000000000000E+00   0.00000000000000E+00   0.00000000000000E+00
      3.85353176473339E-17  -1.16672374546354E-33   3.85353176473339E-17  -1.25148015398161E-17   4.88785386277484E-03
      4.88785372198220E-03   0.00000000000000E+00   0.00000000000000E+00   6.43898116009500E-10   5.53921250485863E-34
      6.43898116009500E-10   4.17849060336611E-18
      1.07757077255497E-01
      0.00000000000000E+00   1.50616020237231E-10   0.00000000000000E+00   0.00000000000000E+00  -6.97541658519834E-10
      6.77077970154526E-34  -6.97541658519834E-10   4.92974810385375E-18   0.00000000000000E+00   0.00000000000000E+00
      0.00000000000000E+00   0.00000000000000E+00   0.00000000000000E+00   0.00000000000000E+00   0.00000000000000E+00
      3.40050937418300E-18   0.00000000000000E+00   0.00000000000000E+00   0.00000000000000E+00   0.00000000000000E+00
      4.69838734287895E-17  -1.19556410867088E-33   4.69838734287895E-17  -1.25146199969875E-17   5.38785386277483E-03
      5.38785371024723E-03   0.00000000000000E+00   0.00000000000000E+00   6.97541611535960E-10   5.18486138516353E-34
      6.97541611535960E-10   4.18436251895077E-18
      1.17757077255497E-01
      0.00000000000000E+00   1.61766153338474E-10   0.00000000000000E+00   0.00000000000000E+00  -7.49153585450132E-10
      6.41868389905766E-34  -7.49153585450132E-10   4.92956082578647E-18   0.00000000000000E+00   0.00000000000000E+00
      0.00000000000000E+00   0.00000000000000E+00   0.00000000000000E+00   0.00000000000000E+00   0.00000000000000E+00
      3.39464393214174E-18   0.00000000000000E+00   0.00000000000000E+00   0.00000000000000E+00   0.00000000000000E+00
      4.48213756438754E-17  -1.14804260556969E-33   4.48213756438754E-17  -1.25144402086838E-17   5.88785386277483E-03
      5.88785369895572E-03   0.00000000000000E+00   0.00000000000000E+00   7.49153540628757E-10   5.06174215663919E-34
      7.49153540628757E-10   4.19023545075554E-18
      1.27757077255497E-01
      0.00000000000000E+00   1.72491941003288E-10   0.00000000000000E+00   0.00000000000000E+00  -7.98797144578257E-10
      6.22708735102670E-34  -7.98797144578257E-10   4.92937356734598E-18   0.00000000000000E+00   0.00000000000000E+00
      0.00000000000000E+00   0.00000000000000E+00   0.00000000000000E+00   0.00000000000000E+00   0.00000000000000E+00
      3.38877920273686E-18   0.00000000000000E+00   0.00000000000000E+00   0.00000000000000E+00   0.00000000000000E+00
      4.39032795929518E-17  -1.11515875360608E-33   4.39032795929518E-17  -1.25142621631102E-17   6.38785386277483E-03
      6.38785368809395E-03   0.00000000000000E+00   0.00000000000000E+00   7.98797100674978E-10   4.92450018503410E-34
      7.98797100674978E-10   4.19610939302735E-18
      1.37757077255497E-01
      0.00000000000000E+00   1.82806734423058E-10   0.00000000000000E+00   0.00000000000000E+00  -8.46534587302743E-10
      6.84679471273455E-34  -8.46534587302743E-10   4.92918632835009E-18   0.00000000000000E+00   0.00000000000000E+00
      0.00000000000000E+00   0.00000000000000E+00   0.00000000000000E+00   0.00000000000000E+00   0.00000000000000E+00
      3.38291518024646E-18   0.00000000000000E+00   0.00000000000000E+00   0.00000000000000E+00   0.00000000000000E+00
      4.30963093938780E-17  -1.18461603601985E-33   4.30963093938780E-17  -1.25140858486705E-17   6.88785386277483E-03
      6.88785367764837E-03   0.00000000000000E+00   0.00000000000000E+00   8.46534544206433E-10   4.99936564746399E-34
      8.46534544206433E-10   4.20198434007392E-18
      1.47757077255497E-01
      0.00000000000000E+00   1.92723830861983E-10   0.00000000000000E+00   0.00000000000000E+00  -8.92427829095154E-10
      6.33463767557700E-34  -8.92427829095154E-10   4.92899910861270E-18   0.00000000000000E+00   0.00000000000000E+00
      0.00000000000000E+00   0.00000000000000E+00   0.00000000000000E+00   0.00000000000000E+00   0.00000000000000E+00
      3.37705185879354E-18   0.00000000000000E+00   0.00000000000000E+00   0.00000000000000E+00   0.00000000000000E+00
      5.64252060953131E-17  -1.10315147940424E-33   5.64252060953131E-17  -1.25139112535910E-17   7.38785386277483E-03
      7.38785366760553E-03   0.00000000000000E+00   0.00000000000000E+00   8.92427772669948E-10   4.69687711846540E-34
      8.92427772669948E-10   4.20786028618482E-18
      1.57757077255497E-01
      0.00000000000000E+00   2.02256227614299E-10   0.00000000000000E+00   0.00000000000000E+00  -9.36537382089043E-10
      6.29601743137640E-34  -9.36537382089043E-10   4.92881190795001E-18   0.00000000000000E+00   0.00000000000000E+00
      0.00000000000000E+00   0.00000000000000E+00   0.00000000000000E+00   0.00000000000000E+00   0.00000000000000E+00
      3.37118923265757E-18   0.00000000000000E+00   0.00000000000000E+00   0.00000000000000E+00   0.00000000000000E+00
      3.78803503209400E-17  -1.08687787972966E-33   3.78803503209400E-17  -1.25137383663286E-17   7.88785386277484E-03
      7.88785365795224E-03   0.00000000000000E+00   0.00000000000000E+00   9.36537344208693E-10   4.57276136592014E-34
      9.36537344208693E-10   4.21373722572102E-18
      1.67757077255497E-01
      0.00000000000000E+00   2.11416665820108E-10   0.00000000000000E+00   0.00000000000000E+00  -9.78922682671957E-10
      6.59639637254401E-34  -9.78922682671957E-10   4.92862472617835E-18   0.00000000000000E+00   0.00000000000000E+00
      0.00000000000000E+00   0.00000000000000E+00   0.00000000000000E+00   0.00000000000000E+00   0.00000000000000E+00
      3.36532729615838E-18   0.00000000000000E+00   0.00000000000000E+00   0.00000000000000E+00   0.00000000000000E+00
      4.11879163260975E-17  -1.10820519031855E-33   4.11879163260975E-17  -1.25135671754095E-17   8.38785386277484E-03
      8.38785364867561E-03   0.00000000000000E+00   0.00000000000000E+00   9.78922641484042E-10   4.48565553064144E-34
      9.78922641484042E-10   4.21961515307276E-18
      1.77757077255497E-01
      0.00000000000000E+00   2.20217631307997E-10   0.00000000000000E+00   0.00000000000000E+00  -1.01964176750269E-09
      6.19868059162278E-34  -1.01964176750269E-09   4.92843756311510E-18   0.00000000000000E+00   0.00000000000000E+00
      0.00000000000000E+00   0.00000000000000E+00   0.00000000000000E+00   0.00000000000000E+00   0.00000000000000E+00
      3.35946604369561E-18   0.00000000000000E+00   0.00000000000000E+00   0.00000000000000E+00   0.00000000000000E+00
      4.04634533840005E-17  -1.07430907825805E-33   4.04634533840005E-17  -1.25133976694794E-17   8.88785386277484E-03
      8.88785363976303E-03   0.00000000000000E+00   0.00000000000000E+00   1.01964172703924E-09   4.54441019095768E-34
      1.01964172703924E-09   4.22549406266878E-18
      1.87757077255497E-01
      0.00000000000000E+00   2.28671327631444E-10   0.00000000000000E+00   0.00000000000000E+00  -1.05875153341984E-09
      6.37761941824227E-34  -1.05875153341984E-09   4.92825041857683E-18   0.00000000000000E+00   0.00000000000000E+00
      0.00000000000000E+00   0.00000000000000E+00   0.00000000000000E+00   0.00000000000000E+00   0.00000000000000E+00
      3.35360546964988E-18   0.00000000000000E+00   0.00000000000000E+00   0.00000000000000E+00   0.00000000000000E+00
      3.76515486128436E-17  -1.09868029137919E-33   3.76515486128436E-17  -1.25132298371834E-17   9.38785386277484E-03
      9.38785363120212E-03   0.00000000000000E+00   0.00000000000000E+00   1.05875149576829E-09   4.60918349554969E-34
      1.05875149576829E-09   4.23137394895664E-18
      1.97757077255497E-01
      0.00000000000000E+00   2.36789697134121E-10   0.00000000000000E+00   0.00000000000000E+00  -1.09630752424590E-09