DF-ISE text

Info {
  version   = 1.0
  type      = xyplot
  datasets  = [
    "time"
    "source OuterVoltage" "source InnerVoltage" "source QuasiFermiPotential" "source DisplacementCurrent" "source eCurrent"
    "source hCurrent" "source TotalCurrent" "source Charge" "gate OuterVoltage" "gate InnerVoltage"
    "gate QuasiFermiPotential" "gate DisplacementCurrent" "gate eCurrent" "gate hCurrent" "gate TotalCurrent"
    "gate Charge" "substrate OuterVoltage" "substrate InnerVoltage" "substrate QuasiFermiPotential" "substrate DisplacementCurrent"
    "substrate eCurrent" "substrate hCurrent" "substrate TotalCurrent" "substrate Charge" "drain OuterVoltage"
    "drain InnerVoltage" "drain QuasiFermiPotential" "drain DisplacementCurrent" "drain eCurrent" "drain hCurrent"
    "drain TotalCurrent" "drain Charge" ]
  functions = [
    Time
    OuterVoltage InnerVoltage QuasiFermiPotential DisplacementCurrent eCurrent
    hCurrent TotalCurrent Charge OuterVoltage InnerVoltage
    QuasiFermiPotential DisplacementCurrent eCurrent hCurrent TotalCurrent
    Charge OuterVoltage InnerVoltage QuasiFermiPotential DisplacementCurrent
    eCurrent hCurrent TotalCurrent Charge OuterVoltage
    InnerVoltage QuasiFermiPotential DisplacementCurrent eCurrent hCurrent
    TotalCurrent Charge ]
}

Data {
      0.00000000000000E+00
      0.00000000000000E+00   0.00000000000000E+00   0.00000000000000E+00   0.00000000000000E+00   1.09875946334159E-20
      5.40046327379961E-34   1.09875946334164E-20   5.57942574857331E-18   0.00000000000000E+00   0.00000000000000E+00
      0.00000000000000E+00   0.00000000000000E+00   0.00000000000000E+00   0.00000000000000E+00   0.00000000000000E+00
      4.55778007759204E-18   0.00000000000000E+00   0.00000000000000E+00   0.00000000000000E+00   0.00000000000000E+00
     -6.17077083497102E-21  -1.11168676208886E-33  -6.17077083497213E-21  -1.48847225210833E-17   0.00000000000000E+00
      0.00000000000000E+00   0.00000000000000E+00   0.00000000000000E+00  -4.81682379844487E-21   5.71640434708900E-34
     -4.81682379844430E-21   4.74751669491800E-18
      0.00000000000000E+00
      0.00000000000000E+00   0.00000000000000E+00   0.00000000000000E+00   0.00000000000000E+00  -4.10074990012621E-19
      5.56867187833765E-34  -4.10074990012620E-19   5.57736864781638E-18   0.00000000000000E+00   0.00000000000000E+00
      0.00000000000000E+00   0.00000000000000E+00   0.00000000000000E+00   0.00000000000000E+00   0.00000000000000E+00
      4.55060535358486E-18   0.00000000000000E+00   0.00000000000000E+00   0.00000000000000E+00   0.00000000000000E+00
      4.27477631990457E-19  -1.10745984218014E-33   4.27477631990456E-19  -1.48738213860978E-17   0.00000000000000E+00
      0.00000000000000E+00   0.00000000000000E+00   0.00000000000000E+00  -1.74026419778363E-20   5.50592654346376E-34
     -1.74026419778357E-20   4.74584738469652E-18
      1.00000000000000E-03
      0.00000000000000E+00   9.79576605025249E-13   0.00000000000000E+00   0.00000000000000E+00  -4.88484912119809E-12
      5.51351810255850E-34  -4.88484912119809E-12   5.57735229715860E-18   0.00000000000000E+00   0.00000000000000E+00
      0.00000000000000E+00   0.00000000000000E+00   0.00000000000000E+00   0.00000000000000E+00   0.00000000000000E+00
      4.54995711480240E-18   0.00000000000000E+00   0.00000000000000E+00   0.00000000000000E+00   0.00000000000000E+00
      3.87689800339462E-20  -1.09769039362050E-33   3.87689800339451E-20  -1.48737946480836E-17   5.00000000000000E-05
      4.99999990162100E-05   0.00000000000000E+00   0.00000000000000E+00   4.88484908242911E-12   5.46338583364651E-34
      4.88484908242911E-12   4.74648523612259E-18
      2.09333333333333E-03
      0.00000000000000E+00   2.04740944216856E-12   0.00000000000000E+00   0.00000000000000E+00  -1.02098201186871E-11
      5.47611500852264E-34  -1.02098201186871E-11   5.57733442061009E-18   0.00000000000000E+00   0.00000000000000E+00
      0.00000000000000E+00   0.00000000000000E+00   0.00000000000000E+00   0.00000000000000E+00   0.00000000000000E+00
      4.54924838262561E-18   0.00000000000000E+00   0.00000000000000E+00   0.00000000000000E+00   0.00000000000000E+00
      2.73590681466318E-19  -1.11472464732184E-33   2.73590681466316E-19  -1.48737654378193E-17   1.04666666666667E-04
      1.04666664610446E-04   0.00000000000000E+00   0.00000000000000E+00   1.02098198450965E-11   5.67113146469571E-34
      1.02098198450965E-11   4.74718263458356E-18
      3.29600000000000E-03
      0.00000000000000E+00   3.21807804341933E-12   0.00000000000000E+00   0.00000000000000E+00  -1.60475636631973E-11
      5.64256513290098E-34  -1.60475636631973E-11   5.57731475661342E-18   0.00000000000000E+00   0.00000000000000E+00
      0.00000000000000E+00   0.00000000000000E+00   0.00000000000000E+00   0.00000000000000E+00   0.00000000000000E+00
      4.54846878794989E-18   0.00000000000000E+00   0.00000000000000E+00   0.00000000000000E+00   0.00000000000000E+00
      2.20302912115828E-19  -1.11750568463753E-33   2.20302912115827E-19  -1.48737333346176E-17   1.64800000000000E-04
      1.64799996768072E-04   0.00000000000000E+00   0.00000000000000E+00   1.60475634428944E-11   5.53249171347431E-34
      1.60475634428944E-11   4.74794979005433E-18
      4.61893333333333E-03
      0.00000000000000E+00   4.50094319159206E-12   0.00000000000000E+00   0.00000000000000E+00  -2.24447607806551E-11
      5.53068510123750E-34  -2.24447607806551E-11   5.57729312646760E-18   0.00000000000000E+00   0.00000000000000E+00
      0.00000000000000E+00   0.00000000000000E+00   0.00000000000000E+00   0.00000000000000E+00   0.00000000000000E+00
      4.54761124676357E-18   0.00000000000000E+00   0.00000000000000E+00   0.00000000000000E+00   0.00000000000000E+00
      8.56935846595434E-20  -1.11296863417375E-33   8.56935846595422E-20  -1.48736980550577E-17   2.30946666666667E-04
      2.30946662146353E-04   0.00000000000000E+00   0.00000000000000E+00   2.24447606949615E-11   5.59900124049997E-34
      2.24447606949615E-11   4.74879368182653E-18
      6.07416000000000E-03
      0.00000000000000E+00   5.90611600820254E-12   0.00000000000000E+00   0.00000000000000E+00  -2.94518655064978E-11
      5.56660232920678E-34  -2.94518655064978E-11   5.57726933361064E-18   0.00000000000000E+00   0.00000000000000E+00
      0.00000000000000E+00   0.00000000000000E+00   0.00000000000000E+00   0.00000000000000E+00   0.00000000000000E+00
      4.54666796711955E-18   0.00000000000000E+00   0.00000000000000E+00   0.00000000000000E+00   0.00000000000000E+00
     -2.48836507746764E-19  -1.10521475252612E-33  -2.48836507746765E-19  -1.48736592886009E-17   3.03708000000000E-04
      3.03707994068474E-04   0.00000000000000E+00   0.00000000000000E+00   2.94518657553343E-11   5.48554519605443E-34
      2.94518657553343E-11   4.74972198787081E-18
      7.67490933333333E-03
      0.00000000000000E+00   7.44451699651320E-12   0.00000000000000E+00   0.00000000000000E+00  -3.71232620743054E-11
      5.34352091116758E-34  -3.71232620743054E-11   5.57724316183536E-18   0.00000000000000E+00   0.00000000000000E+00
      0.00000000000000E+00   0.00000000000000E+00   0.00000000000000E+00   0.00000000000000E+00   0.00000000000000E+00
      4.54563037843836E-18   0.00000000000000E+00   0.00000000000000E+00   0.00000000000000E+00   0.00000000000000E+00
     -7.89510804589290E-20  -1.08049095775313E-33  -7.89510804589301E-20  -1.48736166951346E-17   3.83745466666667E-04
      3.83745459190122E-04   0.00000000000000E+00   0.00000000000000E+00   3.71232621532565E-11   5.46138866636374E-34
      3.71232621532565E-11   4.75074315486089E-18
      9.43573360000000E-03
      0.00000000000000E+00   9.12788342191380E-12   0.00000000000000E+00   0.00000000000000E+00  -4.55174114510980E-11
      5.39836264035171E-34  -4.55174114510980E-11   5.57721437332710E-18   0.00000000000000E+00   0.00000000000000E+00
      0.00000000000000E+00   0.00000000000000E+00   0.00000000000000E+00   0.00000000000000E+00   0.00000000000000E+00
      4.54448905376114E-18   0.00000000000000E+00   0.00000000000000E+00   0.00000000000000E+00   0.00000000000000E+00
     -1.21990144389880E-19  -1.12187401717672E-33  -1.21990144389881E-19  -1.48735699023205E-17   4.71786680000000E-04
      4.71786670832865E-04   0.00000000000000E+00   0.00000000000000E+00   4.55174115730881E-11   5.82037753141549E-34
      4.55174115730881E-11   4.75186647523222E-18
      1.13726402933333E-02
      0.00000000000000E+00   1.09687553712023E-11   0.00000000000000E+00   0.00000000000000E+00  -5.46969776581772E-11
      5.34910207644378E-34  -5.46969776581772E-11   5.57718270650580E-18   0.00000000000000E+00   0.00000000000000E+00
      0.00000000000000E+00   0.00000000000000E+00   0.00000000000000E+00   0.00000000000000E+00   0.00000000000000E+00
      4.54323362425152E-18   0.00000000000000E+00   0.00000000000000E+00   0.00000000000000E+00   0.00000000000000E+00
      2.07081498055033E-19  -1.08320561300727E-33   2.07081498055032E-19  -1.48735185027427E-17   5.68632014666667E-04
      5.68632003650740E-04   0.00000000000000E+00   0.00000000000000E+00   5.46969774510958E-11   5.48295405362892E-34
      5.46969774510958E-11   4.75310217198532E-18
      1.35032376560000E-02
      0.00000000000000E+00   1.29805954787604E-11   0.00000000000000E+00   0.00000000000000E+00  -6.47289071992940E-11
      5.60234215773403E-34  -6.47289071992940E-11   5.57714787365271E-18   0.00000000000000E+00   0.00000000000000E+00
      0.00000000000000E+00   0.00000000000000E+00   0.00000000000000E+00   0.00000000000000E+00   0.00000000000000E+00
      4.54185268517683E-18   0.00000000000000E+00   0.00000000000000E+00   0.00000000000000E+00   0.00000000000000E+00
      1.52551486338400E-19  -1.13440941484884E-33   1.52551486338398E-19  -1.48734620508463E-17   6.75161882800000E-04
      6.75161869763604E-04   0.00000000000000E+00   0.00000000000000E+00   6.47289070467425E-11   5.74175199075439E-34
      6.47289070467425E-11   4.75446149201681E-18
      1.58468947549333E-02
      0.00000000000000E+00   1.51776839611391E-11   0.00000000000000E+00   0.00000000000000E+00  -7.56844603187669E-11
      5.33533579834426E-34  -7.56844603187669E-11   5.57710955830070E-18   0.00000000000000E+00   0.00000000000000E+00
      0.00000000000000E+00   0.00000000000000E+00   0.00000000000000E+00   0.00000000000000E+00   0.00000000000000E+00
      4.54033369252150E-18   0.00000000000000E+00   0.00000000000000E+00   0.00000000000000E+00   0.00000000000000E+00
      2.02686605029289E-19  -1.04829057682410E-33   2.02686605029288E-19  -1.48734000596619E-17   7.92344737746667E-04
      7.92344722503755E-04   0.00000000000000E+00   0.00000000000000E+00   7.56844601160803E-11   5.14756996989676E-34
      7.56844601160803E-11   4.75595680883969E-18
      1.84249175637600E-02
      0.00000000000000E+00   1.75751768400624E-11   0.00000000000000E+00   0.00000000000000E+00  -8.76391661639395E-11
      5.38658246883428E-34  -8.76391661639395E-11   5.57706741236397E-18   0.00000000000000E+00   0.00000000000000E+00
      0.00000000000000E+00   0.00000000000000E+00   0.00000000000000E+00   0.00000000000000E+00   0.00000000000000E+00
      4.53866284930322E-18   0.00000000000000E+00   0.00000000000000E+00   0.00000000000000E+00   0.00000000000000E+00
      4.45853304844279E-20  -1.10514298799524E-33   4.45853304844268E-20  -1.48733319973112E-17   9.21245878188001E-04
      9.21245860537309E-04   0.00000000000000E+00   0.00000000000000E+00   8.76391661193541E-11   5.66484741111809E-34
      8.76391661193541E-11   4.75760173564398E-18
      2.12607426534693E-02
      0.00000000000000E+00   2.01890690405234E-11   0.00000000000000E+00   0.00000000000000E+00  -1.00672689657957E-10
      5.54411030274062E-34  -1.00672689657957E-10   5.57702105298206E-18   0.00000000000000E+00   0.00000000000000E+00
      0.00000000000000E+00   0.00000000000000E+00   0.00000000000000E+00   0.00000000000000E+00   0.00000000000000E+00
      4.53682498057016E-18   0.00000000000000E+00   0.00000000000000E+00   0.00000000000000E+00   0.00000000000000E+00
      6.83628303626465E-19  -1.08994336792716E-33   6.83628303626464E-19  -1.48732572832974E-17   1.06303713267347E-03
      1.06303711239767E-03   0.00000000000000E+00   0.00000000000000E+00   1.00672688974329E-10   5.35532337653098E-34
      1.00672688974329E-10   4.75941124974518E-18
      2.43801502521496E-02
      0.00000000000000E+00   2.30361361677814E-11   0.00000000000000E+00   0.00000000000000E+00  -1.14868577904054E-10
      5.47140768500255E-34  -1.14868577904054E-10   5.57697005904940E-18   0.00000000000000E+00   0.00000000000000E+00
      0.00000000000000E+00   0.00000000000000E+00   0.00000000000000E+00   0.00000000000000E+00   0.00000000000000E+00
      4.53480339595761E-18   0.00000000000000E+00   0.00000000000000E+00   0.00000000000000E+00   0.00000000000000E+00
      4.75251308343001E-19  -1.07990593616493E-33   4.75251308342999E-19  -1.48731752845833E-17   1.21900751260748E-03
      1.21900748947243E-03   0.00000000000000E+00   0.00000000000000E+00   1.14868577428802E-10   5.32765167664671E-34
      1.14868577428802E-10   4.76140182957628E-18
      2.78114986106979E-02
      0.00000000000000E+00   2.61338238016522E-11   0.00000000000000E+00   0.00000000000000E+00  -1.30313880015113E-10
      5.35859171815057E-34  -1.30313880015113E-10   5.57691396739893E-18   0.00000000000000E+00   0.00000000000000E+00
      0.00000000000000E+00   0.00000000000000E+00   0.00000000000000E+00   0.00000000000000E+00   0.00000000000000E+00
      4.53257973856793E-18   0.00000000000000E+00   0.00000000000000E+00   0.00000000000000E+00   0.00000000000000E+00
      1.28746618312233E-18  -1.07261941932692E-33   1.28746618312233E-18  -1.48730853114630E-17   1.39057493053490E-03
      1.39057490428888E-03   0.00000000000000E+00   0.00000000000000E+00   1.30313878727647E-10   5.36760247511863E-34
      1.30313878727647E-10   4.76359160549611E-18
      3.15859818051010E-02
      0.00000000000000E+00   2.95002319157040E-11   0.00000000000000E+00   0.00000000000000E+00  -1.47098572404616E-10
      5.35809178412863E-34  -1.47098572404616E-10   5.57685226860594E-18   0.00000000000000E+00   0.00000000000000E+00
      0.00000000000000E+00   0.00000000000000E+00   0.00000000000000E+00   0.00000000000000E+00   0.00000000000000E+00
      4.53013381882849E-18   0.00000000000000E+00   0.00000000000000E+00   0.00000000000000E+00   0.00000000000000E+00
      1.36984035380238E-18  -1.08767564438945E-33   1.36984035380238E-18  -1.48729866132570E-17   1.57929909025505E-03
      1.57929906062824E-03   0.00000000000000E+00   0.00000000000000E+00   1.47098571034776E-10   5.51866465976583E-34
      1.47098571034776E-10   4.76600052582255E-18
      3.57379133189445E-02
      0.00000000000000E+00   3.31538442632998E-11   0.00000000000000E+00   0.00000000000000E+00  -1.65314791742114E-10
      5.66265070981466E-34  -1.65314791742114E-10   5.57678440237436E-18   0.00000000000000E+00   0.00000000000000E+00
      0.00000000000000E+00   0.00000000000000E+00   0.00000000000000E+00   0.00000000000000E+00   0.00000000000000E+00
      4.52744343183413E-18   0.00000000000000E+00   0.00000000000000E+00   0.00000000000000E+00   0.00000000000000E+00
      2.38985889028914E-18  -1.10135695361965E-33   2.38985889028913E-18  -1.48728783738472E-17   1.78689566594722E-03
      1.78689563265119E-03   0.00000000000000E+00   0.00000000000000E+00   1.65314789352255E-10   5.35091882638183E-34
      1.65314789352255E-10   4.76865053963873E-18
      4.03050379841723E-02
      0.00000000000000E+00   3.71133971708299E-11   0.00000000000000E+00   0.00000000000000E+00  -1.85055809241829E-10
      5.53907946883681E-34  -1.85055809241829E-10   5.57670975246377E-18   0.00000000000000E+00   0.00000000000000E+00
      0.00000000000000E+00   0.00000000000000E+00   0.00000000000000E+00   0.00000000000000E+00   0.00000000000000E+00
      4.52448415654414E-18   0.00000000000000E+00   0.00000000000000E+00   0.00000000000000E+00   0.00000000000000E+00
      3.00602926200825E-18  -1.10328069704197E-33   3.00602926200825E-18  -1.48727597070921E-17   2.01525189920861E-03
      2.01525186193610E-03   0.00000000000000E+00   0.00000000000000E+00   1.85055806235800E-10   5.49372750158292E-34
      1.85055806235800E-10   4.77156579808419E-18
      4.53288751159228E-02
      0.00000000000000E+00   4.13975917028660E-11   0.00000000000000E+00   0.00000000000000E+00  -2.06414723047246E-10
      5.80090574845003E-34  -2.06414723047246E-10   5.57662764111193E-18   0.00000000000000E+00   0.00000000000000E+00
      0.00000000000000E+00   0.00000000000000E+00   0.00000000000000E+00   0.00000000000000E+00   0.00000000000000E+00
      4.52122913504309E-18   0.00000000000000E+00   0.00000000000000E+00   0.00000000000000E+00   0.00000000000000E+00
      4.89392364916225E-18  -1.11874207342851E-33   4.89392364916225E-18  -1.48726296521753E-17   2.26644375579614E-03
      2.26644371422114E-03   0.00000000000000E+00   0.00000000000000E+00   2.06414718153323E-10   5.38651498583505E-34
      2.06414718153323E-10   4.77477287602025E-18
      5.08550959608485E-02
      0.00000000000000E+00   4.60247968068495E-11   0.00000000000000E+00   0.00000000000000E+00  -2.29482802773006E-10
      5.69047431913251E-34  -2.29482802773006E-10   5.57653732290294E-18   0.00000000000000E+00   0.00000000000000E+00
      0.00000000000000E+00   0.00000000000000E+00   0.00000000000000E+00   0.00000000000000E+00   0.00000000000000E+00
      4.51764882989819E-18   0.00000000000000E+00   0.00000000000000E+00   0.00000000000000E+00   0.00000000000000E+00
      7.09761976321113E-18  -1.10833067726483E-33   7.09761976321113E-18  -1.48724871689561E-17   2.54275479804242E-03
      2.54275475182049E-03   0.00000000000000E+00   0.00000000000000E+00   2.29482795675386E-10   5.39283245351576E-34
      2.29482795675386E-10   4.77830101615494E-18
      5.69339388902666E-02
      0.00000000000000E+00   5.10125720484753E-11   0.00000000000000E+00   0.00000000000000E+00  -2.54347453493114E-10
      5.73620368341692E-34  -2.54347453493114E-10   5.57643797802611E-18   0.00000000000000E+00   0.00000000000000E+00
      0.00000000000000E+00   0.00000000000000E+00   0.00000000000000E+00   0.00000000000000E+00   0.00000000000000E+00
      4.51371075745585E-18   0.00000000000000E+00   0.00000000000000E+00   0.00000000000000E+00   0.00000000000000E+00
      1.05630070882340E-17  -1.10294212804723E-33   1.05630070882340E-17  -1.48723311334134E-17   2.84669694451333E-03
      2.84669689328239E-03   0.00000000000000E+00   0.00000000000000E+00   2.54347442930107E-10   5.29321759705538E-34
      2.54347442930107E-10   4.78218239793145E-18
      6.36206661126266E-02
      0.00000000000000E+00   5.63772354494014E-11   0.00000000000000E+00   0.00000000000000E+00  -2.81089734430029E-10
      5.09752928662628E-34  -2.81089734430029E-10   5.57632870486496E-18   0.00000000000000E+00   0.00000000000000E+00
      0.00000000000000E+00   0.00000000000000E+00   0.00000000000000E+00   0.00000000000000E+00   0.00000000000000E+00
      4.50937919470790E-18   0.00000000000000E+00   0.00000000000000E+00   0.00000000000000E+00   0.00000000000000E+00
      1.53437557359899E-17  -1.04138694714690E-33   1.53437557359899E-17  -1.48721603332960E-17   3.18103330563133E-03
      3.18103324901290E-03   0.00000000000000E+00   0.00000000000000E+00   2.81089719086273E-10   5.31634018484272E-34
      2.81089719086273E-10   4.78645243372312E-18
      7.09760660572226E-02
      0.00000000000000E+00   6.21332541958225E-11   0.00000000000000E+00   0.00000000000000E+00  -3.09781419725793E-10
      5.60033916672843E-34  -3.09781419725793E-10   5.57620851185080E-18   0.00000000000000E+00   0.00000000000000E+00
      0.00000000000000E+00   0.00000000000000E+00   0.00000000000000E+00   0.00000000000000E+00   0.00000000000000E+00
      4.50461485712470E-18   0.00000000000000E+00   0.00000000000000E+00   0.00000000000000E+00   0.00000000000000E+00
      2.23319958687358E-17  -1.06257638621248E-33   2.23319958687358E-17  -1.48719734641242E-17   3.54880330286113E-03
      3.54880324046222E-03   0.00000000000000E+00   0.00000000000000E+00   3.09781397393797E-10   5.02542469539638E-34
      3.09781397393797E-10   4.79115009514872E-18
      7.90670059962782E-02
      0.00000000000000E+00   6.82925369419684E-11   0.00000000000000E+00   0.00000000000000E+00  -3.40481528004750E-10
      5.77098922740964E-34  -3.40481528004750E-10   5.57607630850741E-18   0.00000000000000E+00   0.00000000000000E+00
      0.00000000000000E+00   0.00000000000000E+00   0.00000000000000E+00   0.00000000000000E+00   0.00000000000000E+00
      4.49937454459745E-18   0.00000000000000E+00   0.00000000000000E+00   0.00000000000000E+00   0.00000000000000E+00
      3.25561688202803E-17  -1.05488933722858E-33   3.25561688202803E-17  -1.48717691257077E-17   3.95335029981391E-03
      3.95335023122958E-03   0.00000000000000E+00   0.00000000000000E+00   3.40481495448581E-10   4.77790414487619E-34
      3.40481495448581E-10   4.79631827260283E-18
      8.79670399292394E-02
      0.00000000000000E+00   7.48636506697106E-11   0.00000000000000E+00   0.00000000000000E+00  -3.73232351799769E-10
      5.52601396720004E-34  -3.73232351799769E-10   5.57593089560792E-18   0.00000000000000E+00   0.00000000000000E+00
      0.00000000000000E+00   0.00000000000000E+00   0.00000000000000E+00   0.00000000000000E+00   0.00000000000000E+00
      4.49361075238213E-18   0.00000000000000E+00   0.00000000000000E+00   0.00000000000000E+00   0.00000000000000E+00
      1.02258545772646E-16  -1.02987647379128E-33   1.02258545772646E-16  -1.48715458194487E-17   4.39835199646197E-03
      4.39835192127869E-03   0.00000000000000E+00   0.00000000000000E+00   3.73232249541223E-10   4.77275077071281E-34
      3.73232249541223E-10   4.80200417145868E-18
      9.77570772554967E-02
      0.00000000000000E+00   8.18508686194560E-11   0.00000000000000E+00   0.00000000000000E+00  -4.08054622992773E-10
      5.58955753378158E-34  -4.08054622992773E-10   5.57577095435545E-18   0.00000000000000E+00   0.00000000000000E+00
      0.00000000000000E+00   0.00000000000000E+00   0.00000000000000E+00   0.00000000000000E+00   0.00000000000000E+00
      4.48727124358470E-18   0.00000000000000E+00   0.00000000000000E+00   0.00000000000000E+00   0.00000000000000E+00
      6.91534498112545E-17  -1.04310007423779E-33   6.91534498112545E-17  -1.48713019466589E-17   4.88785386277484E-03
      4.88785378057476E-03   0.00000000000000E+00   0.00000000000000E+00   4.08054553839323E-10   4.84144320859634E-34
      4.08054553839323E-10   4.80825974871882E-18
      1.07757077255497E-01
      0.00000000000000E+00   8.87342405129847E-11   0.00000000000000E+00   0.00000000000000E+00  -4.42356944084309E-10
      5.50045111171377E-34  -4.42356944084309E-10   5.57560759678262E-18   0.00000000000000E+00   0.00000000000000E+00
      0.00000000000000E+00   0.00000000000000E+00   0.00000000000000E+00   0.00000000000000E+00   0.00000000000000E+00
      4.48079648532187E-18   0.00000000000000E+00   0.00000000000000E+00   0.00000000000000E+00   0.00000000000000E+00
      7.99880136415839E-17  -1.00140741578670E-33   7.99880136415839E-17  -1.48710547403772E-17   5.38785386277483E-03
      5.38785377366230E-03   0.00000000000000E+00   0.00000000000000E+00   4.42356864096295E-10   4.51362304615322E-34
      4.42356864096295E-10   4.81465065827271E-18
      1.17757077255497E-01
      0.00000000000000E+00   9.53685114382761E-11   0.00000000000000E+00   0.00000000000000E+00  -4.75415565303440E-10
      5.51673517766967E-34  -4.75415565303440E-10   5.57544425309886E-18   0.00000000000000E+00   0.00000000000000E+00
      0.00000000000000E+00   0.00000000000000E+00   0.00000000000000E+00   0.00000000000000E+00   0.00000000000000E+00
      4.47432244016066E-18   0.00000000000000E+00   0.00000000000000E+00   0.00000000000000E+00   0.00000000000000E+00
      8.06711983772059E-17  -1.03804528405370E-33   8.06711983772059E-17  -1.48708094392757E-17   5.88785386277483E-03
      5.88785376700004E-03   0.00000000000000E+00   0.00000000000000E+00   4.75415484632242E-10   4.86371766286738E-34
      4.75415484632242E-10   4.82104274601614E-18
      1.27757077255497E-01
      0.00000000000000E+00   1.01761006013122E-10   0.00000000000000E+00   0.00000000000000E+00  -5.07267176829887E-10
      5.65438638496235E-34  -5.07267176829887E-10   5.57528092317440E-18   0.00000000000000E+00   0.00000000000000E+00
      0.00000000000000E+00   0.00000000000000E+00   0.00000000000000E+00   0.00000000000000E+00   0.00000000000000E+00
      4.46784910241818E-18   0.00000000000000E+00   0.00000000000000E+00   0.00000000000000E+00   0.00000000000000E+00
      9.61535327026844E-17  -1.01449576855860E-33   9.61535327026844E-17  -1.48705660316346E-17   6.38785386277483E-03
      6.38785376058058E-03   0.00000000000000E+00   0.00000000000000E+00   5.07267080676355E-10   4.49057130062365E-34
      5.07267080676355E-10   4.82743600604203E-18
      1.37757077255497E-01
      0.00000000000000E+00   1.07918984892017E-10   0.00000000000000E+00   0.00000000000000E+00  -5.37948060051260E-10
      5.52676620117287E-34  -5.37948060051260E-10   5.57511760687950E-18   0.00000000000000E+00   0.00000000000000E+00
      0.00000000000000E+00   0.00000000000000E+00   0.00000000000000E+00   0.00000000000000E+00   0.00000000000000E+00
      4.46137646645690E-18   0.00000000000000E+00   0.00000000000000E+00   0.00000000000000E+00   0.00000000000000E+00
      6.62908599314148E-17  -1.00002754425134E-33   6.62908599314148E-17  -1.48703245058144E-17   6.88785386277483E-03
      6.88785375439669E-03   0.00000000000000E+00   0.00000000000000E+00   5.37947993760399E-10   4.47350924134053E-34
      5.37947993760399E-10   4.83383043247805E-18
      1.47757077255497E-01
      0.00000000000000E+00   1.13849575882601E-10   0.00000000000000E+00   0.00000000000000E+00  -5.67494087412652E-10
      5.47134852277893E-34  -5.67494087412652E-10   5.57495430408505E-18   0.00000000000000E+00   0.00000000000000E+00
      0.00000000000000E+00   0.00000000000000E+00   0.00000000000000E+00   0.00000000000000E+00   0.00000000000000E+00
      4.45490452671726E-18   0.00000000000000E+00   0.00000000000000E+00   0.00000000000000E+00   0.00000000000000E+00
      7.74256407148796E-17  -9.71657069493085E-34   7.74256407148796E-17  -1.48700848503012E-17   7.38785386277483E-03
      7.38785374844115E-03   0.00000000000000E+00   0.00000000000000E+00   5.67494009987011E-10   4.24522217215192E-34
      5.67494009987011E-10   4.84022601949901E-18
      1.57757077255497E-01
      0.00000000000000E+00   1.19559841189131E-10   0.00000000000000E+00   0.00000000000000E+00  -5.95940539608173E-10
      5.11827755062013E-34  -5.95940539608173E-10   5.57479101466197E-18   0.00000000000000E+00   0.00000000000000E+00
      0.00000000000000E+00   0.00000000000000E+00   0.00000000000000E+00   0.00000000000000E+00   0.00000000000000E+00
      4.44843327766925E-18   0.00000000000000E+00   0.00000000000000E+00   0.00000000000000E+00   0.00000000000000E+00
      7.66736914026033E-17  -9.40537135944798E-34   7.66736914026033E-17  -1.48698470536375E-17   7.88785386277484E-03
      7.88785374270688E-03   0.00000000000000E+00   0.00000000000000E+00   5.95940462934481E-10   4.28709380882785E-34
      5.95940462934481E-10   4.84662276130624E-18
      1.67757077255497E-01
      0.00000000000000E+00   1.25056707708887E-10   0.00000000000000E+00   0.00000000000000E+00  -6.23322130022920E-10
      5.73038829352366E-34  -6.23322130022920E-10   5.57462773848119E-18   0.00000000000000E+00   0.00000000000000E+00
      0.00000000000000E+00   0.00000000000000E+00   0.00000000000000E+00   0.00000000000000E+00   0.00000000000000E+00
      4.44196271380928E-18   0.00000000000000E+00   0.00000000000000E+00   0.00000000000000E+00   0.00000000000000E+00
      7.56283493612105E-17  -1.01168056641191E-33   7.56283493612105E-17  -1.48696111044169E-17   8.38785386277484E-03
      8.38785373718693E-03   0.00000000000000E+00   0.00000000000000E+00   6.23322054394571E-10   4.38641737059546E-34
      6.23322054394571E-10   4.85302065212642E-18
      1.77757077255497E-01
      0.00000000000000E+00   1.30346970312336E-10   0.00000000000000E+00   0.00000000000000E+00  -6.49672880012833E-10
      5.64581992001826E-34  -6.49672880012833E-10   5.57446447541446E-18   0.00000000000000E+00   0.00000000000000E+00
      0.00000000000000E+00   0.00000000000000E+00   0.00000000000000E+00   0.00000000000000E+00   0.00000000000000E+00
      4.43549282969549E-18   0.00000000000000E+00   0.00000000000000E+00   0.00000000000000E+00   0.00000000000000E+00
      7.44574837137119E-17  -9.79241138217837E-34   7.44574837137119E-17  -1.48693769913361E-17   8.88785386277484E-03
      8.88785373187449E-03   0.00000000000000E+00   0.00000000000000E+00   6.49672805555349E-10   4.14659146216010E-34
      6.49672805555349E-10   4.85941968622627E-18
      1.87757077255497E-01
      0.00000000000000E+00   1.35437283642716E-10   0.00000000000000E+00   0.00000000000000E+00  -6.75026110203259E-10
      5.43235972256636E-34  -6.75026110203259E-10   5.57430122533406E-18   0.00000000000000E+00   0.00000000000000E+00
      0.00000000000000E+00   0.00000000000000E+00   0.00000000000000E+00   0.00000000000000E+00   0.00000000000000E+00
      4.42902361992792E-18   0.00000000000000E+00   0.00000000000000E+00   0.00000000000000E+00   0.00000000000000E+00
      4.42313869233391E-17  -9.56740885732183E-34   4.42313869233391E-17  -1.48691447031644E-17   9.38785386277484E-03
      9.38785372676284E-03   0.00000000000000E+00   0.00000000000000E+00   6.75026065971873E-10   4.13504913475547E-34
      6.75026065971873E-10   4.86581985790243E-18
      1.97757077255497E-01
      0.00000000000000E+00   1.40334121933956E-10   0.00000000000000E+00   0.00000000000000E+00  -6.99414394235795E-10