DF-ISE text

Info {
  version   = 1.0
  type      = xyplot
  datasets  = [
    "time"
    "source OuterVoltage" "source InnerVoltage" "source QuasiFermiPotential" "source DisplacementCurrent" "source eCurrent"
    "source hCurrent" "source TotalCurrent" "source Charge" "gate OuterVoltage" "gate InnerVoltage"
    "gate QuasiFermiPotential" "gate DisplacementCurrent" "gate eCurrent" "gate hCurrent" "gate TotalCurrent"
    "gate Charge" "substrate OuterVoltage" "substrate InnerVoltage" "substrate QuasiFermiPotential" "substrate DisplacementCurrent"
    "substrate eCurrent" "substrate hCurrent" "substrate TotalCurrent" "substrate Charge" "drain OuterVoltage"
    "drain InnerVoltage" "drain QuasiFermiPotential" "drain DisplacementCurrent" "drain eCurrent" "drain hCurrent"
    "drain TotalCurrent" "drain Charge" ]
  functions = [
    Time
    OuterVoltage InnerVoltage QuasiFermiPotential DisplacementCurrent eCurrent
    hCurrent TotalCurrent Charge OuterVoltage InnerVoltage
    QuasiFermiPotential DisplacementCurrent eCurrent hCurrent TotalCurrent
    Charge OuterVoltage InnerVoltage QuasiFermiPotential DisplacementCurrent
    eCurrent hCurrent TotalCurrent Charge OuterVoltage
    InnerVoltage QuasiFermiPotential DisplacementCurrent eCurrent hCurrent
    TotalCurrent Charge ]
}

Data {
      0.00000000000000E+00
      0.00000000000000E+00   0.00000000000000E+00   0.00000000000000E+00   0.00000000000000E+00   1.77886275868930E-21
      6.44652319523724E-34   1.77886275868995E-21   5.02338221630083E-18   0.00000000000000E+00   0.00000000000000E+00
      0.00000000000000E+00   0.00000000000000E+00   0.00000000000000E+00   0.00000000000000E+00   0.00000000000000E+00
      3.48083811025630E-18   0.00000000000000E+00   0.00000000000000E+00   0.00000000000000E+00   0.00000000000000E+00
     -2.44730868292881E-20  -1.26678931539760E-33  -2.44730868292894E-20  -1.27385345885970E-17   0.00000000000000E+00
      0.00000000000000E+00   0.00000000000000E+00   0.00000000000000E+00   2.26942240705988E-20   6.22136995873872E-34
      2.26942240705995E-20   4.23431426203990E-18
      0.00000000000000E+00
      0.00000000000000E+00   0.00000000000000E+00   0.00000000000000E+00   0.00000000000000E+00  -1.15544333917201E-20
      6.78493122173893E-34  -1.15544333917194E-20   5.02139182801282E-18   0.00000000000000E+00   0.00000000000000E+00
      0.00000000000000E+00   0.00000000000000E+00   0.00000000000000E+00   0.00000000000000E+00   0.00000000000000E+00
      3.47458556497007E-18   0.00000000000000E+00   0.00000000000000E+00   0.00000000000000E+00   0.00000000000000E+00
     -1.58901476835584E-21  -1.28034841966398E-33  -1.58901476835712E-21  -1.27288435680056E-17   0.00000000000000E+00
      0.00000000000000E+00   0.00000000000000E+00   0.00000000000000E+00   1.31434481600760E-20   6.01855297490086E-34
      1.31434481600766E-20   4.23286617502276E-18
      1.00000000000000E-03
      0.00000000000000E+00   1.61239641893300E-12   0.00000000000000E+00   0.00000000000000E+00  -7.64909982864087E-12
      6.95424565606482E-34  -7.64909982864087E-12   5.02137194464906E-18   0.00000000000000E+00   0.00000000000000E+00
      0.00000000000000E+00   0.00000000000000E+00   0.00000000000000E+00   0.00000000000000E+00   0.00000000000000E+00
      3.47399052849443E-18   0.00000000000000E+00   0.00000000000000E+00   0.00000000000000E+00   0.00000000000000E+00
     -1.39174725793149E-20  -1.33252712073527E-33  -1.39174725793163E-20  -1.27288239613612E-17   5.00000000000000E-05
      4.99999983669011E-05   0.00000000000000E+00   0.00000000000000E+00   7.64909984255833E-12   6.37102555128790E-34
      7.64909984255833E-12   4.23346148821772E-18
      2.09333333333333E-03
      0.00000000000000E+00   3.36991579695455E-12   0.00000000000000E+00   0.00000000000000E+00  -1.59866144558312E-11
      6.90297947950831E-34  -1.59866144558312E-11   5.02135020575037E-18   0.00000000000000E+00   0.00000000000000E+00
      0.00000000000000E+00   0.00000000000000E+00   0.00000000000000E+00   0.00000000000000E+00   0.00000000000000E+00
      3.47333996423473E-18   0.00000000000000E+00   0.00000000000000E+00   0.00000000000000E+00   0.00000000000000E+00
      2.20591378284982E-19  -1.31437990895531E-33   2.20591378284980E-19  -1.27288025462795E-17   1.04666666666667E-04
      1.04666663253464E-04   0.00000000000000E+00   0.00000000000000E+00   1.59866142352399E-11   6.24081961004474E-34
      1.59866142352399E-11   4.23411237629434E-18
      3.29600000000000E-03
      0.00000000000000E+00   5.29646755322093E-12   0.00000000000000E+00   0.00000000000000E+00  -2.51259535523430E-11
      6.94720141469918E-34  -2.51259535523430E-11   5.02132629325952E-18   0.00000000000000E+00   0.00000000000000E+00
      0.00000000000000E+00   0.00000000000000E+00   0.00000000000000E+00   0.00000000000000E+00   0.00000000000000E+00
      3.47262435434238E-18   0.00000000000000E+00   0.00000000000000E+00   0.00000000000000E+00   0.00000000000000E+00
     -2.34424047839817E-19  -1.31513104813623E-33  -2.34424047839819E-19  -1.27287790156290E-17   1.64800000000000E-04
      1.64799994635511E-04   0.00000000000000E+00   0.00000000000000E+00   2.51259537867670E-11   6.20410906666309E-34
      2.51259537867670E-11   4.23482836802714E-18
      4.61893333333333E-03
      0.00000000000000E+00   7.40736907309418E-12   0.00000000000000E+00   0.00000000000000E+00  -3.51398012607800E-11
      6.38679799017675E-34  -3.51398012607800E-11   5.02129998988058E-18   0.00000000000000E+00   0.00000000000000E+00
      0.00000000000000E+00   0.00000000000000E+00   0.00000000000000E+00   0.00000000000000E+00   0.00000000000000E+00
      3.47183719650810E-18   0.00000000000000E+00   0.00000000000000E+00   0.00000000000000E+00   0.00000000000000E+00
      4.27041590471394E-20  -1.23727677743279E-33   4.27041590471382E-20  -1.27287531632745E-17   2.30946666666667E-04
      2.30946659164166E-04   0.00000000000000E+00   0.00000000000000E+00   3.51398012180758E-11   5.98596978415115E-34
      3.51398012180758E-11   4.23561597688583E-18
      6.07416000000000E-03
      0.00000000000000E+00   9.71917640474353E-12   0.00000000000000E+00   0.00000000000000E+00  -4.61066565105147E-11
      6.32920719474645E-34  -4.61066565105147E-11   5.02127105660110E-18   0.00000000000000E+00   0.00000000000000E+00
      0.00000000000000E+00   0.00000000000000E+00   0.00000000000000E+00   0.00000000000000E+00   0.00000000000000E+00
      3.47097133866065E-18   0.00000000000000E+00   0.00000000000000E+00   0.00000000000000E+00   0.00000000000000E+00
      1.04500250569731E-19  -1.31176809060134E-33   1.04500250569730E-19  -1.27287247635967E-17   3.03708000000000E-04
      3.03707990156019E-04   0.00000000000000E+00   0.00000000000000E+00   4.61066564060145E-11   6.78847371126698E-34
      4.61066564060145E-11   4.23648236833499E-18
      7.67490933333333E-03
      0.00000000000000E+00   1.22497107369075E-11   0.00000000000000E+00   0.00000000000000E+00  -5.81110499266705E-11
      7.15666490734477E-34  -5.81110499266705E-11   5.02123923052328E-18   0.00000000000000E+00   0.00000000000000E+00
      0.00000000000000E+00   0.00000000000000E+00   0.00000000000000E+00   0.00000000000000E+00   0.00000000000000E+00
      3.47001891408854E-18   0.00000000000000E+00   0.00000000000000E+00   0.00000000000000E+00   0.00000000000000E+00
     -2.57787277669363E-20  -1.33324480247296E-33  -2.57787277669376E-20  -1.27286935697802E-17   3.83745466666667E-04
      3.83745454259658E-04   0.00000000000000E+00   0.00000000000000E+00   5.81110499524492E-11   6.17578311738487E-34
      5.81110499524492E-11   4.23743542516837E-18
      9.43573360000000E-03
      0.00000000000000E+00   1.50181303853096E-11   0.00000000000000E+00   0.00000000000000E+00  -7.12437525142793E-11
      6.61598653353962E-34  -7.12437525142793E-11   5.02120422247871E-18   0.00000000000000E+00   0.00000000000000E+00
      0.00000000000000E+00   0.00000000000000E+00   0.00000000000000E+00   0.00000000000000E+00   0.00000000000000E+00
      3.46897127009160E-18   0.00000000000000E+00   0.00000000000000E+00   0.00000000000000E+00   0.00000000000000E+00
      4.91471718149737E-20  -1.28049979739769E-33   4.91471718149725E-20  -1.27286593119741E-17   4.71786680000000E-04
      4.71786664789042E-04   0.00000000000000E+00   0.00000000000000E+00   7.12437524651322E-11   6.18901144043732E-34
      7.12437524651322E-11   4.23848381940386E-18
      1.13726402933333E-02
      0.00000000000000E+00   1.80449158989169E-11   0.00000000000000E+00   0.00000000000000E+00  -8.56019335842899E-11
      6.57690087011061E-34  -8.56019335842899E-11   5.02116571440525E-18   0.00000000000000E+00   0.00000000000000E+00
      0.00000000000000E+00   0.00000000000000E+00   0.00000000000000E+00   0.00000000000000E+00   0.00000000000000E+00
      3.46781888952364E-18   0.00000000000000E+00   0.00000000000000E+00   0.00000000000000E+00   0.00000000000000E+00
      6.56406702812614E-20  -1.28390952840761E-33   6.56406702812601E-20  -1.27286216953309E-17   5.68632014666667E-04
      5.68631996390078E-04   0.00000000000000E+00   0.00000000000000E+00   8.56019335186493E-11   6.26219441396554E-34
      8.56019335186493E-11   4.23963709140207E-18
      1.35032376560000E-02
      0.00000000000000E+00   2.13519188783144E-11   0.00000000000000E+00   0.00000000000000E+00  -1.01289250643803E-10
      6.64396405183579E-34  -1.01289250643803E-10   5.02112335646268E-18   0.00000000000000E+00   0.00000000000000E+00
      0.00000000000000E+00   0.00000000000000E+00   0.00000000000000E+00   0.00000000000000E+00   0.00000000000000E+00
      3.46655130451815E-18   0.00000000000000E+00   0.00000000000000E+00   0.00000000000000E+00   0.00000000000000E+00
     -5.17628726948963E-20  -1.29740910655992E-33  -5.17628726948975E-20  -1.27285803979179E-17   6.75161882800000E-04
      6.75161861173959E-04   0.00000000000000E+00   0.00000000000000E+00   1.01289250695566E-10   6.33012701376341E-34
      1.01289250695566E-10   4.24090573693707E-18
      1.58468947549333E-02
      0.00000000000000E+00   2.49623884534664E-11   0.00000000000000E+00   0.00000000000000E+00  -1.18415848961007E-10
      6.55572932926798E-34  -1.18415848961007E-10   5.02107676386037E-18   0.00000000000000E+00   0.00000000000000E+00
      0.00000000000000E+00   0.00000000000000E+00   0.00000000000000E+00   0.00000000000000E+00   0.00000000000000E+00
      3.46515700162039E-18   0.00000000000000E+00   0.00000000000000E+00   0.00000000000000E+00   0.00000000000000E+00
      2.77327953592053E-19  -1.24448557709712E-33   2.77327953592052E-19  -1.27285350685036E-17   7.92344737746667E-04
      7.92344712463832E-04   0.00000000000000E+00   0.00000000000000E+00   1.18415848683679E-10   5.88912644170326E-34
      1.18415848683679E-10   4.24230130302278E-18
      1.84249175637600E-02
      0.00000000000000E+00   2.89009042618819E-11   0.00000000000000E+00   0.00000000000000E+00  -1.37098240404198E-10
      6.72798130714964E-34  -1.37098240404198E-10   5.02102551336937E-18   0.00000000000000E+00   0.00000000000000E+00
      0.00000000000000E+00   0.00000000000000E+00   0.00000000000000E+00   0.00000000000000E+00   0.00000000000000E+00
      3.46362331747456E-18   0.00000000000000E+00   0.00000000000000E+00   0.00000000000000E+00   0.00000000000000E+00
      3.01145479044375E-19  -1.29031294360690E-33   3.01145479044374E-19  -1.27284853242244E-17   9.21245878188001E-04
      9.21245848916116E-04   0.00000000000000E+00   0.00000000000000E+00   1.37098240103052E-10   6.17514812891936E-34
      1.37098240103052E-10   4.24383649338045E-18
      2.12607426534693E-02
      0.00000000000000E+00   3.31933301125306E-11   0.00000000000000E+00   0.00000000000000E+00  -1.57459030118791E-10
      6.51489613072681E-34  -1.57459030118791E-10   5.02096913948693E-18   0.00000000000000E+00   0.00000000000000E+00
      0.00000000000000E+00   0.00000000000000E+00   0.00000000000000E+00   0.00000000000000E+00   0.00000000000000E+00
      3.46193632412941E-18   0.00000000000000E+00   0.00000000000000E+00   0.00000000000000E+00   0.00000000000000E+00
      2.01467648303563E-19  -1.25813761476198E-33   2.01467648303562E-19  -1.27284307481394E-17   1.06303713267347E-03
      1.06303709905410E-03   0.00000000000000E+00   0.00000000000000E+00   1.57459029917324E-10   6.06648001689301E-34
      1.57459029917324E-10   4.24552528452309E-18
      2.43801502521496E-02
      0.00000000000000E+00   3.78667188313853E-11   0.00000000000000E+00   0.00000000000000E+00  -1.79626453007966E-10
      6.48433652025935E-34  -1.79626453007966E-10   5.02090713021895E-18   0.00000000000000E+00   0.00000000000000E+00
      0.00000000000000E+00   0.00000000000000E+00   0.00000000000000E+00   0.00000000000000E+00   0.00000000000000E+00
      3.46008070293401E-18   0.00000000000000E+00   0.00000000000000E+00   0.00000000000000E+00   0.00000000000000E+00
      4.22370836372354E-19  -1.28697462195390E-33   4.22370836372353E-19  -1.27283708866861E-17   1.21900751260748E-03
      1.21900747425478E-03   0.00000000000000E+00   0.00000000000000E+00   1.79626452585595E-10   6.38540969927969E-34
      1.79626452585595E-10   4.24738305353316E-18
      2.78114986106979E-02
      0.00000000000000E+00   4.29491914566329E-11   0.00000000000000E+00   0.00000000000000E+00  -2.03733676920527E-10
      6.84605341016659E-34  -2.03733676920527E-10   5.02083892244311E-18   0.00000000000000E+00   0.00000000000000E+00
      0.00000000000000E+00   0.00000000000000E+00   0.00000000000000E+00   0.00000000000000E+00   0.00000000000000E+00
      3.45803960589443E-18   0.00000000000000E+00   0.00000000000000E+00   0.00000000000000E+00   0.00000000000000E+00
      4.39723297990651E-19  -1.26386880737724E-33   4.39723297990650E-19  -1.27283052470566E-17   1.39057493053490E-03
      1.39057488703455E-03   0.00000000000000E+00   0.00000000000000E+00   2.03733676480804E-10   5.79263466360578E-34
      2.03733676480804E-10   4.24942671871902E-18
      3.15859818051010E-02
      0.00000000000000E+00   4.84696749433435E-11   0.00000000000000E+00   0.00000000000000E+00  -2.29917822023595E-10
      6.80083769048446E-34  -2.29917822023595E-10   5.02076389681044E-18   0.00000000000000E+00   0.00000000000000E+00
      0.00000000000000E+00   0.00000000000000E+00   0.00000000000000E+00   0.00000000000000E+00   0.00000000000000E+00
      3.45579450325166E-18   0.00000000000000E+00   0.00000000000000E+00   0.00000000000000E+00   0.00000000000000E+00
      9.33644548170291E-19  -1.27108486538223E-33   9.33644548170290E-19  -1.27282332945213E-17   1.57929909025505E-03
      1.57929904116342E-03   0.00000000000000E+00   0.00000000000000E+00   2.29917821089950E-10   5.91001096333785E-34
      2.29917821089950E-10   4.25167489445917E-18
      3.57379133189445E-02
      0.00000000000000E+00   5.44576828945032E-11   0.00000000000000E+00   0.00000000000000E+00  -2.58318640574675E-10
      6.64478812889739E-34  -2.58318640574675E-10   5.02068137213972E-18   0.00000000000000E+00   0.00000000000000E+00
      0.00000000000000E+00   0.00000000000000E+00   0.00000000000000E+00   0.00000000000000E+00   0.00000000000000E+00
      3.45332501591950E-18   0.00000000000000E+00   0.00000000000000E+00   0.00000000000000E+00   0.00000000000000E+00
      1.13350933449873E-18  -1.26061211765687E-33   1.13350933449872E-18  -1.27281544497366E-17   1.78689566594722E-03
      1.78689561079081E-03   0.00000000000000E+00   0.00000000000000E+00   2.58318639441166E-10   5.96133304767130E-34
      2.58318639441166E-10   4.25414806167738E-18
      4.03050379841723E-02
      0.00000000000000E+00   6.09429399077645E-11   0.00000000000000E+00   0.00000000000000E+00  -2.89076797975262E-10
      6.83829706911369E-34  -2.89076797975262E-10   5.02059059925497E-18   0.00000000000000E+00   0.00000000000000E+00
      0.00000000000000E+00   0.00000000000000E+00   0.00000000000000E+00   0.00000000000000E+00   0.00000000000000E+00
      3.45060873128448E-18   0.00000000000000E+00   0.00000000000000E+00   0.00000000000000E+00   0.00000000000000E+00
      1.83029143752365E-18  -1.29178339205910E-33   1.83029143752365E-18  -1.27280680860765E-17   2.01525189920861E-03
      2.01525183748381E-03   0.00000000000000E+00   0.00000000000000E+00   2.89076796144971E-10   6.07953685147733E-34
      2.89076796144971E-10   4.25686875553699E-18
      4.53288751159228E-02
      0.00000000000000E+00   6.79548768431071E-11   0.00000000000000E+00   0.00000000000000E+00  -3.22331685590867E-10
      6.72516377300188E-34  -3.22331685590867E-10   5.02049075421087E-18   0.00000000000000E+00   0.00000000000000E+00
      0.00000000000000E+00   0.00000000000000E+00   0.00000000000000E+00   0.00000000000000E+00   0.00000000000000E+00
      3.44762100073495E-18   0.00000000000000E+00   0.00000000000000E+00   0.00000000000000E+00   0.00000000000000E+00
      7.53529853434072E-18  -1.26697989320843E-33   7.53529853434072E-18  -1.27279735270633E-17   2.26644375579614E-03
      2.26644368696953E-03   0.00000000000000E+00   0.00000000000000E+00   3.22331678055569E-10   5.94463515908237E-34
      3.22331678055569E-10   4.25986177211751E-18
      5.08550959608485E-02
      0.00000000000000E+00   7.55221285727881E-11   0.00000000000000E+00   0.00000000000000E+00  -3.58218666874109E-10
      6.38765153536015E-34  -3.58218666874109E-10   5.02038093084487E-18   0.00000000000000E+00   0.00000000000000E+00
      0.00000000000000E+00   0.00000000000000E+00   0.00000000000000E+00   0.00000000000000E+00   0.00000000000000E+00
      3.44433471711222E-18   0.00000000000000E+00   0.00000000000000E+00   0.00000000000000E+00   0.00000000000000E+00
      3.81277338979593E-18  -1.21307867086745E-33   3.81277338979593E-18  -1.27278700439647E-17   2.54275479804242E-03
      2.54275472155159E-03   0.00000000000000E+00   0.00000000000000E+00   3.58218663061336E-10   5.74313517331429E-34
      3.58218663061336E-10   4.26315439600767E-18
      5.69339388902666E-02
      0.00000000000000E+00   8.36717636439517E-11   0.00000000000000E+00   0.00000000000000E+00  -3.96865774413017E-10
      6.39163641349124E-34  -3.96865774413017E-10   5.02026013259092E-18   0.00000000000000E+00   0.00000000000000E+00
      0.00000000000000E+00   0.00000000000000E+00   0.00000000000000E+00   0.00000000000000E+00   0.00000000000000E+00
      3.44072007010989E-18   0.00000000000000E+00   0.00000000000000E+00   0.00000000000000E+00   0.00000000000000E+00
      5.70531654278304E-18  -1.22275340395640E-33   5.70531654278304E-18  -1.27277568536536E-17   2.84669694451333E-03
      2.84669685976844E-03   0.00000000000000E+00   0.00000000000000E+00   3.96865768707700E-10   5.83589762607278E-34
      3.96865768707700E-10   4.26677665095281E-18
      6.36206661126266E-02
      0.00000000000000E+00   9.24285073217982E-11   0.00000000000000E+00   0.00000000000000E+00  -4.38389654735311E-10
      6.27484491130482E-34  -4.38389654735311E-10   5.02012726348020E-18   0.00000000000000E+00   0.00000000000000E+00
      0.00000000000000E+00   0.00000000000000E+00   0.00000000000000E+00   0.00000000000000E+00   0.00000000000000E+00
      3.43674427745324E-18   0.00000000000000E+00   0.00000000000000E+00   0.00000000000000E+00   0.00000000000000E+00
     -3.25752313477439E-18  -1.20464356205756E-33  -3.25752313477439E-18  -1.27276331168603E-17   3.18103330563133E-03
      3.18103321201753E-03   0.00000000000000E+00   0.00000000000000E+00   4.38389657992835E-10   5.77159070927080E-34
      4.38389657992835E-10   4.27076157592688E-18
      7.09760660572226E-02
      0.00000000000000E+00   1.01813633660727E-10   0.00000000000000E+00   0.00000000000000E+00  -4.82890775743478E-10
      6.63723431027259E-34  -4.82890775743478E-10   5.01998111825094E-18   0.00000000000000E+00   0.00000000000000E+00
      0.00000000000000E+00   0.00000000000000E+00   0.00000000000000E+00   0.00000000000000E+00   0.00000000000000E+00
      3.43237128949349E-18   0.00000000000000E+00   0.00000000000000E+00   0.00000000000000E+00   0.00000000000000E+00
      1.26146319316419E-17  -1.18662510753342E-33   1.26146319316419E-17  -1.27274979369779E-17   3.54880330286113E-03
      3.54880319974200E-03   0.00000000000000E+00   0.00000000000000E+00   4.82890763128846E-10   5.22901676506161E-34
      4.82890763128846E-10   4.27514552923349E-18
      7.90670059962782E-02
      0.00000000000000E+00   1.11843913840725E-10   0.00000000000000E+00   0.00000000000000E+00  -5.30447925958071E-10
      6.86672125977896E-34  -5.30447925958071E-10   5.01982037147658E-18   0.00000000000000E+00   0.00000000000000E+00
      0.00000000000000E+00   0.00000000000000E+00   0.00000000000000E+00   0.00000000000000E+00   0.00000000000000E+00
      3.42756146455829E-18   0.00000000000000E+00   0.00000000000000E+00   0.00000000000000E+00   0.00000000000000E+00
      1.98377839221578E-17  -1.24658753519623E-33   1.98377839221578E-17  -1.27273503595428E-17   3.95335029981391E-03
      3.95335018653606E-03   0.00000000000000E+00   0.00000000000000E+00   5.30447906120287E-10   5.59915409218335E-34
      5.30447906120287E-10   4.27996852350788E-18
      8.79670399292394E-02
      0.00000000000000E+00   1.22530182231061E-10   0.00000000000000E+00   0.00000000000000E+00  -5.81111822167292E-10
      6.54374052091972E-34  -5.81111822167292E-10   5.01964356561816E-18   0.00000000000000E+00   0.00000000000000E+00
      0.00000000000000E+00   0.00000000000000E+00   0.00000000000000E+00   0.00000000000000E+00   0.00000000000000E+00
      3.42227121225053E-18   0.00000000000000E+00   0.00000000000000E+00   0.00000000000000E+00   0.00000000000000E+00
      2.63127370572458E-17  -1.17572585425113E-33   2.63127370572458E-17  -1.27271893726878E-17   4.39835199646197E-03
      4.39835187236104E-03   0.00000000000000E+00   0.00000000000000E+00   5.81111795854555E-10   5.21351802159156E-34
      5.81111795854555E-10   4.28527459481909E-18
      9.77570772554967E-02
      0.00000000000000E+00   1.33875869356785E-10   0.00000000000000E+00   0.00000000000000E+00  -6.34897897262122E-10
      6.68347093566434E-34  -6.34897897262122E-10   5.01944909789464E-18   0.00000000000000E+00   0.00000000000000E+00
      0.00000000000000E+00   0.00000000000000E+00   0.00000000000000E+00   0.00000000000000E+00   0.00000000000000E+00
      3.41645260156431E-18   0.00000000000000E+00   0.00000000000000E+00   0.00000000000000E+00   0.00000000000000E+00
      5.03478698374207E-17  -1.20549389947396E-33   5.03478698374207E-17  -1.27270139088580E-17   4.88785386277484E-03
      4.88785372718300E-03   0.00000000000000E+00   0.00000000000000E+00   6.34897846914252E-10   5.37146805907529E-34
      6.34897846914252E-10   4.29111220939903E-18
      1.07757077255497E-01
      0.00000000000000E+00   1.45034738495018E-10   0.00000000000000E+00   0.00000000000000E+00  -6.87794099675683E-10
      6.52453268401627E-34  -6.87794099675683E-10   5.01925047958199E-18   0.00000000000000E+00   0.00000000000000E+00
      0.00000000000000E+00   0.00000000000000E+00   0.00000000000000E+00   0.00000000000000E+00   0.00000000000000E+00
      3.41050991733544E-18   0.00000000000000E+00   0.00000000000000E+00   0.00000000000000E+00   0.00000000000000E+00
      4.35705402796468E-17  -1.18910094267418E-33   4.35705402796468E-17  -1.27268364246752E-17   5.38785386277483E-03
      5.38785371588132E-03   0.00000000000000E+00   0.00000000000000E+00   6.87794056105142E-10   5.36647674272552E-34
      6.87794056105142E-10   4.29707602775779E-18
      1.17757077255497E-01
      0.00000000000000E+00   1.55771988161375E-10   0.00000000000000E+00   0.00000000000000E+00  -7.38687555955311E-10
      6.31326234272487E-34  -7.38687555955311E-10   5.01905188137646E-18   0.00000000000000E+00   0.00000000000000E+00
      0.00000000000000E+00   0.00000000000000E+00   0.00000000000000E+00   0.00000000000000E+00   0.00000000000000E+00
      3.40456795057617E-18   0.00000000000000E+00   0.00000000000000E+00   0.00000000000000E+00   0.00000000000000E+00
      2.88691045472889E-17  -1.14661215948017E-33   2.88691045472889E-17  -1.27266606900257E-17   5.88785386277483E-03
      5.88785370500670E-03   0.00000000000000E+00   0.00000000000000E+00   7.38687527086207E-10   5.15285925207685E-34
      7.38687527086207E-10   4.30304085807312E-18
      1.27757077255497E-01
      0.00000000000000E+00   1.66100647069658E-10   0.00000000000000E+00   0.00000000000000E+00  -7.87640556805844E-10
      6.52543741925021E-34  -7.87640556805844E-10   5.01885330309473E-18   0.00000000000000E+00   0.00000000000000E+00
      0.00000000000000E+00   0.00000000000000E+00   0.00000000000000E+00   0.00000000000000E+00   0.00000000000000E+00
      3.39862669550546E-18   0.00000000000000E+00   0.00000000000000E+00   0.00000000000000E+00   0.00000000000000E+00
      4.28408299523624E-17  -1.17304819246510E-33   4.28408299523624E-17  -1.27264866932196E-17   6.38785386277483E-03
      6.38785369454588E-03   0.00000000000000E+00   0.00000000000000E+00   7.87640513965014E-10   5.20504450540082E-34
      7.87640513965014E-10   4.30900669461945E-18
      1.37757077255497E-01
      0.00000000000000E+00   1.76033663672953E-10   0.00000000000000E+00   0.00000000000000E+00  -8.34714748657044E-10
      6.80516364200572E-34  -8.34714748657044E-10   5.01865474455247E-18   0.00000000000000E+00   0.00000000000000E+00
      0.00000000000000E+00   0.00000000000000E+00   0.00000000000000E+00   0.00000000000000E+00   0.00000000000000E+00
      3.39268614636304E-18   0.00000000000000E+00   0.00000000000000E+00   0.00000000000000E+00   0.00000000000000E+00
      3.51304059255844E-17  -1.20884852296182E-33   3.51304059255844E-17  -1.27263144226084E-17   6.88785386277483E-03
      6.88785368448579E-03   0.00000000000000E+00   0.00000000000000E+00   8.34714713526638E-10   5.28332158761251E-34
      8.34714713526638E-10   4.31497353169291E-18
      1.47757077255497E-01
      0.00000000000000E+00   1.85583700960973E-10   0.00000000000000E+00   0.00000000000000E+00  -8.79970621461729E-10
      6.26835795863324E-34  -8.79970621461729E-10   5.01845620556669E-18   0.00000000000000E+00   0.00000000000000E+00
      0.00000000000000E+00   0.00000000000000E+00   0.00000000000000E+00   0.00000000000000E+00   0.00000000000000E+00
      3.38674629752866E-18   0.00000000000000E+00   0.00000000000000E+00   0.00000000000000E+00   0.00000000000000E+00
      4.16050728735220E-17  -1.11095632753708E-33   4.16050728735220E-17  -1.27261438667402E-17   7.38785386277483E-03
      7.38785367481362E-03   0.00000000000000E+00   0.00000000000000E+00   8.79970579856656E-10   4.84120531673753E-34
      8.79970579856656E-10   4.32094136364487E-18
      1.57757077255497E-01
      0.00000000000000E+00   1.94763325114115E-10   0.00000000000000E+00   0.00000000000000E+00  -9.23468059831488E-10
      7.03041780506218E-34  -9.23468059831488E-10   5.01825768595237E-18   0.00000000000000E+00   0.00000000000000E+00
      0.00000000000000E+00   0.00000000000000E+00   0.00000000000000E+00   0.00000000000000E+00   0.00000000000000E+00
      3.38080714328577E-18   0.00000000000000E+00   0.00000000000000E+00   0.00000000000000E+00   0.00000000000000E+00
      2.82231103673615E-17  -1.19768115769727E-33   2.82231103673615E-17  -1.27259750140762E-17   7.88785386277484E-03
      7.88785366551664E-03   0.00000000000000E+00   0.00000000000000E+00   9.23468031608378E-10   4.94639377191053E-34
      9.23468031608378E-10   4.32691018483805E-18
      1.67757077255497E-01
      0.00000000000000E+00   2.03584842499735E-10   0.00000000000000E+00   0.00000000000000E+00  -9.65265678450034E-10
      6.90479996933004E-34  -9.65265678450034E-10   5.01805918552544E-18   0.00000000000000E+00   0.00000000000000E+00
      0.00000000000000E+00   0.00000000000000E+00   0.00000000000000E+00   0.00000000000000E+00   0.00000000000000E+00
      3.37486867800401E-18   0.00000000000000E+00   0.00000000000000E+00   0.00000000000000E+00   0.00000000000000E+00
      4.00175285359580E-17  -1.19651736631289E-33   4.00175285359580E-17  -1.27258078532110E-17   8.38785386277484E-03
      8.38785365658235E-03   0.00000000000000E+00   0.00000000000000E+00   9.65265638432506E-10   5.06037369379885E-34
      9.65265638432506E-10   4.33287998968155E-18
      1.77757077255497E-01
      0.00000000000000E+00   2.12060270712095E-10   0.00000000000000E+00   0.00000000000000E+00  -1.00542081385234E-09
      6.73196832665645E-34  -1.00542081385234E-09   5.01786070410235E-18   0.00000000000000E+00   0.00000000000000E+00
      0.00000000000000E+00   0.00000000000000E+00   0.00000000000000E+00   0.00000000000000E+00   0.00000000000000E+00
      3.36893089610254E-18   0.00000000000000E+00   0.00000000000000E+00   0.00000000000000E+00   0.00000000000000E+00
      4.03888151028059E-17  -1.14799944212163E-33   4.03888151028059E-17  -1.27256423728148E-17   8.88785386277484E-03
      8.88785364799860E-03   0.00000000000000E+00   0.00000000000000E+00   1.00542077346353E-09   4.74802609455981E-34
      1.00542077346353E-09   4.33885077260991E-18
      1.87757077255497E-01
      0.00000000000000E+00   2.20201321196335E-10   0.00000000000000E+00   0.00000000000000E+00  -1.04398938149269E-09
      6.41273107845499E-34  -1.04398938149269E-09   5.01766224150101E-18   0.00000000000000E+00   0.00000000000000E+00
      0.00000000000000E+00   0.00000000000000E+00   0.00000000000000E+00   0.00000000000000E+00   0.00000000000000E+00
      3.36299379210444E-18   0.00000000000000E+00   0.00000000000000E+00   0.00000000000000E+00   0.00000000000000E+00
      3.87411912417576E-17  -1.10724344505844E-33   3.87411912417576E-17  -1.27254785617132E-17   9.38785386277484E-03
      9.38785363975355E-03   0.00000000000000E+00   0.00000000000000E+00   1.04398934275150E-09   4.65970337212943E-34
      1.04398934275150E-09   4.34482252810766E-18
      1.97757077255497E-01
      0.00000000000000E+00   2.28019506814378E-10   0.00000000000000E+00   0.00000000000000E+00  -1.08102610435368E-09