DF-ISE text

Info {
  version   = 1.0
  type      = xyplot
  datasets  = [
    "time"
    "source OuterVoltage" "source InnerVoltage" "source QuasiFermiPotential" "source DisplacementCurrent" "source eCurrent"
    "source hCurrent" "source TotalCurrent" "source Charge" "gate OuterVoltage" "gate InnerVoltage"
    "gate QuasiFermiPotential" "gate DisplacementCurrent" "gate eCurrent" "gate hCurrent" "gate TotalCurrent"
    "gate Charge" "substrate OuterVoltage" "substrate InnerVoltage" "substrate QuasiFermiPotential" "substrate DisplacementCurrent"
    "substrate eCurrent" "substrate hCurrent" "substrate TotalCurrent" "substrate Charge" "drain OuterVoltage"
    "drain InnerVoltage" "drain QuasiFermiPotential" "drain DisplacementCurrent" "drain eCurrent" "drain hCurrent"
    "drain TotalCurrent" "drain Charge" ]
  functions = [
    Time
    OuterVoltage InnerVoltage QuasiFermiPotential DisplacementCurrent eCurrent
    hCurrent TotalCurrent Charge OuterVoltage InnerVoltage
    QuasiFermiPotential DisplacementCurrent eCurrent hCurrent TotalCurrent
    Charge OuterVoltage InnerVoltage QuasiFermiPotential DisplacementCurrent
    eCurrent hCurrent TotalCurrent Charge OuterVoltage
    InnerVoltage QuasiFermiPotential DisplacementCurrent eCurrent hCurrent
    TotalCurrent Charge ]
}

Data {
      0.00000000000000E+00
      0.00000000000000E+00   0.00000000000000E+00   0.00000000000000E+00   0.00000000000000E+00  -1.07579537810832E-21
     -1.67375884187529E-34  -1.07579537810849E-21   4.36657111419621E-18   0.00000000000000E+00   0.00000000000000E+00
      0.00000000000000E+00   0.00000000000000E+00   0.00000000000000E+00   0.00000000000000E+00   0.00000000000000E+00
      2.66899076432658E-18   0.00000000000000E+00   0.00000000000000E+00   0.00000000000000E+00   0.00000000000000E+00
      1.01839022385085E-21   3.49029822962472E-34   1.01839022385120E-21  -1.05312134323758E-17   0.00000000000000E+00
      0.00000000000000E+00   0.00000000000000E+00   0.00000000000000E+00   5.74051542574746E-23  -1.81653938774942E-34
      5.74051542572929E-23   3.49565155385298E-18
      0.00000000000000E+00
      0.00000000000000E+00   0.00000000000000E+00   0.00000000000000E+00   0.00000000000000E+00  -3.50128224659345E-20
     -1.69428625790791E-34  -3.50128224659347E-20   4.36503498844053E-18   0.00000000000000E+00   0.00000000000000E+00
      0.00000000000000E+00   0.00000000000000E+00   0.00000000000000E+00   0.00000000000000E+00   0.00000000000000E+00
      2.66336916383056E-18   0.00000000000000E+00   0.00000000000000E+00   0.00000000000000E+00   0.00000000000000E+00
      4.82701839004318E-20   3.64060064900886E-34   4.82701839004322E-20  -1.05229820200697E-17   0.00000000000000E+00
      0.00000000000000E+00   0.00000000000000E+00   0.00000000000000E+00  -1.32573614344974E-20  -1.94631439110095E-34
     -1.32573614344976E-20   3.49457786779860E-18
      1.00000000000000E-03
      0.00000000000000E+00   3.38847561304309E-12   0.00000000000000E+00   0.00000000000000E+00  -1.42913345601280E-11
     -1.80385432232695E-34  -1.42913345601280E-11   4.36502115103515E-18   0.00000000000000E+00   0.00000000000000E+00
      0.00000000000000E+00   0.00000000000000E+00   0.00000000000000E+00   0.00000000000000E+00   0.00000000000000E+00
      2.66279954623148E-18   0.00000000000000E+00   0.00000000000000E+00   0.00000000000000E+00   0.00000000000000E+00
     -1.79646638747607E-19   3.44155204658248E-34  -1.79646638747606E-19  -1.05229559222388E-17   5.00000000000000E-05
      4.99999965751495E-05   0.00000000000000E+00   0.00000000000000E+00   1.42913347397747E-11  -1.63769772425553E-34
      1.42913347397747E-11   3.49513522497222E-18
      2.09333333333333E-03
      0.00000000000000E+00   7.08183073168516E-12   0.00000000000000E+00   0.00000000000000E+00  -2.98685193644701E-11
     -1.54413747482766E-34  -2.98685193644701E-11   4.36500602243600E-18   0.00000000000000E+00   0.00000000000000E+00
      0.00000000000000E+00   0.00000000000000E+00   0.00000000000000E+00   0.00000000000000E+00   0.00000000000000E+00
      2.66217677705503E-18   0.00000000000000E+00   0.00000000000000E+00   0.00000000000000E+00   0.00000000000000E+00
     -7.73534684963411E-21   3.28950938864636E-34  -7.73534684963378E-21  -1.05229274159524E-17   1.04666666666667E-04
      1.04666659508799E-04   0.00000000000000E+00   0.00000000000000E+00   2.98685193722054E-11  -1.74537191381870E-34
      2.98685193722054E-11   3.49574461646135E-18
      3.29600000000000E-03
      0.00000000000000E+00   1.11302963232313E-11   0.00000000000000E+00   0.00000000000000E+00  -4.69433370515296E-11
     -1.43504454996862E-34  -4.69433370515296E-11   4.36498938133764E-18   0.00000000000000E+00   0.00000000000000E+00
      0.00000000000000E+00   0.00000000000000E+00   0.00000000000000E+00   0.00000000000000E+00   0.00000000000000E+00
      2.66149174630821E-18   0.00000000000000E+00   0.00000000000000E+00   0.00000000000000E+00   0.00000000000000E+00
     -1.91946276112848E-20   3.31685783763370E-34  -1.91946276112845E-20  -1.05228960919981E-17   1.64800000000000E-04
      1.64799988750219E-04   0.00000000000000E+00   0.00000000000000E+00   4.69433370707242E-11  -1.88181328766507E-34
      4.69433370707242E-11   3.49641496435229E-18
      4.61893333333333E-03
      0.00000000000000E+00   1.55660243487744E-11   0.00000000000000E+00   0.00000000000000E+00  -6.56514534620192E-11
     -1.54874045712800E-34  -6.56514534620192E-11   4.36497107656705E-18   0.00000000000000E+00   0.00000000000000E+00
      0.00000000000000E+00   0.00000000000000E+00   0.00000000000000E+00   0.00000000000000E+00   0.00000000000000E+00
      2.66073823103781E-18   0.00000000000000E+00   0.00000000000000E+00   0.00000000000000E+00   0.00000000000000E+00
     -1.03735907845020E-20   3.56494167695845E-34  -1.03735907845017E-20  -1.05228616754952E-17   2.30946666666667E-04
      2.30946650933541E-04   0.00000000000000E+00   0.00000000000000E+00   6.56514534723927E-11  -2.01620121983044E-34
      6.56514534723927E-11   3.49715236789032E-18
      6.07416000000000E-03
      0.00000000000000E+00   2.04237870457335E-11   0.00000000000000E+00   0.00000000000000E+00  -8.61393677780210E-11
     -1.84711392845379E-34  -8.61393677780210E-11   4.36495094184978E-18   0.00000000000000E+00   0.00000000000000E+00
      0.00000000000000E+00   0.00000000000000E+00   0.00000000000000E+00   0.00000000000000E+00   0.00000000000000E+00
      2.65990938666139E-18   0.00000000000000E+00   0.00000000000000E+00   0.00000000000000E+00   0.00000000000000E+00
      1.56687074316808E-20   3.49721103181185E-34   1.56687074316812E-20  -1.05228238655087E-17   3.03708000000000E-04
      3.03707979356989E-04   0.00000000000000E+00   0.00000000000000E+00   8.61393677623523E-11  -1.65009710335806E-34
      8.61393677623523E-11   3.49796353699755E-18
      7.67490933333333E-03
      0.00000000000000E+00   2.57409787287311E-11   0.00000000000000E+00   0.00000000000000E+00  -1.08564815782582E-10
     -1.34375944948765E-34  -1.08564815782582E-10   4.36492879430317E-18   0.00000000000000E+00   0.00000000000000E+00
      0.00000000000000E+00   0.00000000000000E+00   0.00000000000000E+00   0.00000000000000E+00   0.00000000000000E+00
      2.65899768494230E-18   0.00000000000000E+00   0.00000000000000E+00   0.00000000000000E+00   0.00000000000000E+00
      2.60173668814364E-20   3.17378531068559E-34   2.60173668814367E-20  -1.05227823327422E-17   3.83745466666667E-04
      3.83745440649417E-04   0.00000000000000E+00   0.00000000000000E+00   1.08564815756565E-10  -1.83002586119795E-34
      1.08564815756565E-10   3.49885585349674E-18
      9.43573360000000E-03
      0.00000000000000E+00   3.15577589593304E-11   0.00000000000000E+00   0.00000000000000E+00  -1.33097144209096E-10
     -1.51811568336373E-34  -1.33097144209096E-10   4.36490443277966E-18   0.00000000000000E+00   0.00000000000000E+00
      0.00000000000000E+00   0.00000000000000E+00   0.00000000000000E+00   0.00000000000000E+00   0.00000000000000E+00
      2.65799484579012E-18   0.00000000000000E+00   0.00000000000000E+00   0.00000000000000E+00   0.00000000000000E+00
      2.75034696417105E-20   3.31115129658267E-34   2.75034696417108E-20  -1.05227367170595E-17   4.71786680000000E-04
      4.71786648103557E-04   0.00000000000000E+00   0.00000000000000E+00   1.33097144181593E-10  -1.79303561321893E-34
      1.33097144181593E-10   3.49983743848971E-18
      1.13726402933333E-02
      0.00000000000000E+00   3.79171317846323E-11   0.00000000000000E+00   0.00000000000000E+00  -1.59917599475154E-10
     -1.41416044156019E-34  -1.59917599475154E-10   4.36487763604509E-18   0.00000000000000E+00   0.00000000000000E+00
      0.00000000000000E+00   0.00000000000000E+00   0.00000000000000E+00   0.00000000000000E+00   0.00000000000000E+00
      2.65689176227542E-18   0.00000000000000E+00   0.00000000000000E+00   0.00000000000000E+00   0.00000000000000E+00
      5.95456944138599E-20   3.20179332873193E-34   5.95456944138602E-20  -1.05226866248332E-17   5.68632014666667E-04
      5.68631976342650E-04   0.00000000000000E+00   0.00000000000000E+00   1.59917599415608E-10  -1.78763288717175E-34
      1.59917599415608E-10   3.50091722651273E-18
      1.35032376560000E-02
      0.00000000000000E+00   4.48649574429773E-11   0.00000000000000E+00   0.00000000000000E+00  -1.89219487549344E-10
     -1.84345739414989E-34  -1.89219487549344E-10   4.36484816077582E-18   0.00000000000000E+00   0.00000000000000E+00
      0.00000000000000E+00   0.00000000000000E+00   0.00000000000000E+00   0.00000000000000E+00   0.00000000000000E+00
      2.65567841818644E-18   0.00000000000000E+00   0.00000000000000E+00   0.00000000000000E+00   0.00000000000000E+00
      9.45593049343065E-20   3.78684027955689E-34   9.45593049343069E-20  -1.05226316261163E-17   6.75161882800000E-04
      6.75161837453642E-04   0.00000000000000E+00   0.00000000000000E+00   1.89219487454784E-10  -1.94338288540700E-34
      1.89219487454784E-10   3.50210504715408E-18
      1.58468947549333E-02
      0.00000000000000E+00   5.24499316538573E-11   0.00000000000000E+00   0.00000000000000E+00  -2.21208158936081E-10
     -1.37451111560354E-34  -2.21208158936081E-10   4.36481573935692E-18   0.00000000000000E+00   0.00000000000000E+00
      0.00000000000000E+00   0.00000000000000E+00   0.00000000000000E+00   0.00000000000000E+00   0.00000000000000E+00
      2.65434379739091E-18   0.00000000000000E+00   0.00000000000000E+00   0.00000000000000E+00   0.00000000000000E+00
      1.51765207822738E-19   3.15269080298199E-34   1.51765207822738E-19  -1.05225712516377E-17   7.92344737746667E-04
      7.92344684734015E-04   0.00000000000000E+00   0.00000000000000E+00   2.21208158784315E-10  -1.77817968737845E-34
      2.21208158784315E-10   3.50341171488989E-18
      1.84249175637600E-02
      0.00000000000000E+00   6.07235910205476E-11   0.00000000000000E+00   0.00000000000000E+00  -2.56100767961330E-10
     -1.54868823563267E-34  -2.56100767961330E-10   4.36478007746154E-18   0.00000000000000E+00   0.00000000000000E+00
      0.00000000000000E+00   0.00000000000000E+00   0.00000000000000E+00   0.00000000000000E+00   0.00000000000000E+00
      2.65287578419244E-18   0.00000000000000E+00   0.00000000000000E+00   0.00000000000000E+00   0.00000000000000E+00
      2.09094856917531E-19   3.56929358856108E-34   2.09094856917532E-19  -1.05225049896252E-17   9.21245878188001E-04
      9.21245816813002E-04   0.00000000000000E+00   0.00000000000000E+00   2.56100767752235E-10  -2.02060535292841E-34
      2.56100767752235E-10   3.50484912797116E-18
      2.12607426534693E-02
      0.00000000000000E+00   6.97401302410707E-11   0.00000000000000E+00   0.00000000000000E+00  -2.94125747920159E-10
     -1.60624206842641E-34  -2.94125747920159E-10   4.36474085138952E-18   0.00000000000000E+00   0.00000000000000E+00
      0.00000000000000E+00   0.00000000000000E+00   0.00000000000000E+00   0.00000000000000E+00   0.00000000000000E+00
      2.65126105379072E-18   0.00000000000000E+00   0.00000000000000E+00   0.00000000000000E+00   0.00000000000000E+00
      3.74252090049752E-19   3.20966948388263E-34   3.74252090049752E-19  -1.05224322824601E-17   1.06303713267347E-03
      1.06303706218528E-03   0.00000000000000E+00   0.00000000000000E+00   2.94125747545907E-10  -1.60342741545622E-34
      2.94125747545907E-10   3.50643037727987E-18
      2.43801502521496E-02
      0.00000000000000E+00   7.95562391288101E-11   0.00000000000000E+00   0.00000000000000E+00  -3.35521919902541E-10
     -1.43438394713462E-34  -3.35521919902541E-10   4.36469770514265E-18   0.00000000000000E+00   0.00000000000000E+00
      0.00000000000000E+00   0.00000000000000E+00   0.00000000000000E+00   0.00000000000000E+00   0.00000000000000E+00
      2.64948495187720E-18   0.00000000000000E+00   0.00000000000000E+00   0.00000000000000E+00   0.00000000000000E+00
      5.68386587167967E-19   3.32838996928898E-34   5.68386587167968E-19  -1.05223525231909E-17   1.21900751260748E-03
      1.21900743219801E-03   0.00000000000000E+00   0.00000000000000E+00   3.35521919334154E-10  -1.89400602215436E-34
      3.35521919334154E-10   3.50816986617102E-18
      2.78114986106979E-02
      0.00000000000000E+00   9.02307460388245E-11   0.00000000000000E+00   0.00000000000000E+00  -3.80537171376153E-10
     -1.97611909629127E-34  -3.80537171376153E-10   4.36465024720925E-18   0.00000000000000E+00   0.00000000000000E+00
      0.00000000000000E+00   0.00000000000000E+00   0.00000000000000E+00   0.00000000000000E+00   0.00000000000000E+00
      2.64753136228555E-18   0.00000000000000E+00   0.00000000000000E+00   0.00000000000000E+00   0.00000000000000E+00
      8.38700547163515E-19   3.68912097780608E-34   8.38700547163516E-19  -1.05222650519082E-17   1.39057493053490E-03
      1.39057483933658E-03   0.00000000000000E+00   0.00000000000000E+00   3.80537170537453E-10  -1.71300188151481E-34
      3.80537170537453E-10   3.51008344241346E-18
      3.15859818051010E-02
      0.00000000000000E+00   1.01824195562144E-10   0.00000000000000E+00   0.00000000000000E+00  -4.29426602455380E-10
     -1.39370407133498E-34  -4.29426602455380E-10   4.36459804703036E-18   0.00000000000000E+00   0.00000000000000E+00
      0.00000000000000E+00   0.00000000000000E+00   0.00000000000000E+00   0.00000000000000E+00   0.00000000000000E+00
      2.64538256152789E-18   0.00000000000000E+00   0.00000000000000E+00   0.00000000000000E+00   0.00000000000000E+00
     -4.59393785215558E-18   2.97887073805503E-34  -4.59393785215558E-18  -1.05221691520245E-17   1.57929909025505E-03
      1.57929898733912E-03   0.00000000000000E+00   0.00000000000000E+00   4.29426607049318E-10  -1.58516666672005E-34
      4.29426607049318E-10   3.51218854346620E-18
      3.57379133189445E-02
      0.00000000000000E+00   1.14398285751646E-10   0.00000000000000E+00   0.00000000000000E+00  -4.82450022867681E-10
     -1.53879988348845E-34  -4.82450022867681E-10   4.36454063111598E-18   0.00000000000000E+00   0.00000000000000E+00
      0.00000000000000E+00   0.00000000000000E+00   0.00000000000000E+00   0.00000000000000E+00   0.00000000000000E+00
      2.64301905893256E-18   0.00000000000000E+00   0.00000000000000E+00   0.00000000000000E+00   0.00000000000000E+00
     -4.29617325646038E-17   3.38903022226270E-34  -4.29617325646038E-17  -1.05220640465013E-17   1.78689566594722E-03
      1.78689555032257E-03   0.00000000000000E+00   0.00000000000000E+00   4.82450065829413E-10  -1.85023033877425E-34
      4.82450065829413E-10   3.51450435645278E-18
      4.03050379841723E-02
      0.00000000000000E+00   1.28015083840034E-10   0.00000000000000E+00   0.00000000000000E+00  -5.39868707520197E-10
     -1.86791393145687E-34  -5.39868707520197E-10   4.36447747877704E-18   0.00000000000000E+00   0.00000000000000E+00
      0.00000000000000E+00   0.00000000000000E+00   0.00000000000000E+00   0.00000000000000E+00   0.00000000000000E+00
      2.64041942096107E-18   0.00000000000000E+00   0.00000000000000E+00   0.00000000000000E+00   0.00000000000000E+00
      2.97175815395318E-18   3.47063870278617E-34   2.97175815395318E-18  -1.05219488940707E-17   2.01525189920861E-03
      2.01525176982142E-03   0.00000000000000E+00   0.00000000000000E+00   5.39868704548439E-10  -1.60272477132931E-34
      5.39868704548439E-10   3.51705199433257E-18
      4.53288751159228E-02
      0.00000000000000E+00   1.42736026752990E-10   0.00000000000000E+00   0.00000000000000E+00  -6.01941254024292E-10
     -2.12241446058781E-34  -6.01941254024292E-10   4.36440801743555E-18   0.00000000000000E+00   0.00000000000000E+00
      0.00000000000000E+00   0.00000000000000E+00   0.00000000000000E+00   0.00000000000000E+00   0.00000000000000E+00
      2.63756007816555E-18   0.00000000000000E+00   0.00000000000000E+00   0.00000000000000E+00   0.00000000000000E+00
     -7.11653239081453E-18   3.76056362421976E-34  -7.11653239081453E-18  -1.05218227855344E-17   2.26644375579614E-03
      2.26644361153049E-03   0.00000000000000E+00   0.00000000000000E+00   6.01941261140825E-10  -1.63814916363195E-34
      6.01941261140825E-10   3.51985468993329E-18
      5.08550959608485E-02
      0.00000000000000E+00   1.58620716322330E-10   0.00000000000000E+00   0.00000000000000E+00  -6.68918462111623E-10
     -1.33147707851000E-34  -6.68918462111623E-10   4.36433161747107E-18   0.00000000000000E+00   0.00000000000000E+00
      0.00000000000000E+00   0.00000000000000E+00   0.00000000000000E+00   0.00000000000000E+00   0.00000000000000E+00
      2.63441511307040E-18   0.00000000000000E+00   0.00000000000000E+00   0.00000000000000E+00   0.00000000000000E+00
      3.78225127203526E-18   2.82440584236876E-34   3.78225127203526E-18  -1.05216847402108E-17   2.54275479804242E-03
      2.54275463772216E-03   0.00000000000000E+00   0.00000000000000E+00   6.68918458329371E-10  -1.49292876385876E-34
      6.68918458329371E-10   3.52293800966935E-18
      5.69339388902666E-02
      0.00000000000000E+00   1.75725461475911E-10   0.00000000000000E+00   0.00000000000000E+00  -7.41037042446822E-10
     -1.63121306735083E-34  -7.41037042446822E-10   4.36424758655885E-18   0.00000000000000E+00   0.00000000000000E+00
      0.00000000000000E+00   0.00000000000000E+00   0.00000000000000E+00   0.00000000000000E+00   0.00000000000000E+00
      2.63095602713435E-18   0.00000000000000E+00   0.00000000000000E+00   0.00000000000000E+00   0.00000000000000E+00
      9.44103550533362E-18   3.16751804180845E-34   9.44103550533362E-18  -1.05215337026724E-17   2.84669694451333E-03
      2.84669676690543E-03   0.00000000000000E+00   0.00000000000000E+00   7.41037033005786E-10  -1.53630497445762E-34
      7.41037033005786E-10   3.52633008897913E-18
      6.36206661126266E-02
      0.00000000000000E+00   1.94101444044199E-10   0.00000000000000E+00   0.00000000000000E+00  -8.18512024325629E-10
     -1.69129596866666E-34  -8.18512024325629E-10   4.36415516345025E-18   0.00000000000000E+00   0.00000000000000E+00
      0.00000000000000E+00   0.00000000000000E+00   0.00000000000000E+00   0.00000000000000E+00   0.00000000000000E+00
      2.62715148475764E-18   0.00000000000000E+00   0.00000000000000E+00   0.00000000000000E+00   0.00000000000000E+00
      1.71335390862829E-17   3.43616443682104E-34   1.71335390862829E-17  -1.05213685399315E-17   3.18103330563133E-03
      3.18103310945104E-03   0.00000000000000E+00   0.00000000000000E+00   8.18512007192089E-10  -1.74486846815438E-34
      8.18512007192089E-10   3.53006189172355E-18
      7.09760660572226E-02
      0.00000000000000E+00   2.13792600028245E-10   0.00000000000000E+00   0.00000000000000E+00  -9.01527801697586E-10
     -1.97793851356643E-34  -9.01527801697586E-10   4.36405351113904E-18   0.00000000000000E+00   0.00000000000000E+00
      0.00000000000000E+00   0.00000000000000E+00   0.00000000000000E+00   0.00000000000000E+00   0.00000000000000E+00
      2.62296703204670E-18   0.00000000000000E+00   0.00000000000000E+00   0.00000000000000E+00   0.00000000000000E+00
      2.01861910903185E-17   3.74815644034477E-34   2.01861910903185E-17  -1.05211880391674E-17   3.54880330286113E-03
      3.54880308677929E-03   0.00000000000000E+00   0.00000000000000E+00   9.01527781511395E-10  -1.77021792677834E-34
      9.01527781511395E-10   3.53416749598167E-18
      7.90670059962782E-02
      0.00000000000000E+00   2.34833189315907E-10   0.00000000000000E+00   0.00000000000000E+00  -9.90227705524887E-10
     -1.73503756931453E-34  -9.90227705524887E-10   4.36394170935648E-18   0.00000000000000E+00   0.00000000000000E+00
      0.00000000000000E+00   0.00000000000000E+00   0.00000000000000E+00   0.00000000000000E+00   0.00000000000000E+00
      2.61836478795731E-18   0.00000000000000E+00   0.00000000000000E+00   0.00000000000000E+00   0.00000000000000E+00
      2.94096497923443E-17   3.40160908297301E-34   2.94096497923443E-17  -1.05209909063473E-17   3.95335029981391E-03
      3.95335006246679E-03   0.00000000000000E+00   0.00000000000000E+00   9.90227676115237E-10  -1.66657151365848E-34
      9.90227676115237E-10   3.53868440903348E-18
      8.79670399292394E-02
      0.00000000000000E+00   2.57244876459900E-10   0.00000000000000E+00   0.00000000000000E+00  -1.08470204761751E-09
     -1.62198149895104E-34  -1.08470204761751E-09   4.36381874632788E-18   0.00000000000000E+00   0.00000000000000E+00
      0.00000000000000E+00   0.00000000000000E+00   0.00000000000000E+00   0.00000000000000E+00   0.00000000000000E+00
      2.61330310508395E-18   0.00000000000000E+00   0.00000000000000E+00   0.00000000000000E+00   0.00000000000000E+00
      6.68610942508561E-17   3.43785132066067E-34   6.68610942508561E-17  -1.05207757659255E-17   4.39835199646197E-03
      4.39835173646392E-03   0.00000000000000E+00   0.00000000000000E+00   1.08470198075642E-09  -1.81586982170963E-34
      1.08470198075642E-09   3.54365391451367E-18
      9.77570772554967E-02
      0.00000000000000E+00   2.81033589047531E-10   0.00000000000000E+00   0.00000000000000E+00  -1.18497428074664E-09
     -1.55878695186597E-34  -1.18497428074664E-09   4.36368350971992E-18   0.00000000000000E+00   0.00000000000000E+00
      0.00000000000000E+00   0.00000000000000E+00   0.00000000000000E+00   0.00000000000000E+00   0.00000000000000E+00
      2.60773619717972E-18   0.00000000000000E+00   0.00000000000000E+00   0.00000000000000E+00   0.00000000000000E+00
      6.18505110295196E-17   2.99989225390912E-34   6.18505110295196E-17  -1.05205411619901E-17   4.88785386277484E-03
      4.88785357873426E-03   0.00000000000000E+00   0.00000000000000E+00   1.18497421889613E-09  -1.44110530204315E-34
      1.18497421889613E-09   3.54912145509044E-18
      1.07757077255497E-01
      0.00000000000000E+00   3.04424325782700E-10   0.00000000000000E+00   0.00000000000000E+00  -1.28356216619296E-09
     -1.65427753700573E-34  -1.28356216619296E-09   4.36354539710994E-18   0.00000000000000E+00   0.00000000000000E+00
      0.00000000000000E+00   0.00000000000000E+00   0.00000000000000E+00   0.00000000000000E+00   0.00000000000000E+00
      2.60205090992381E-18   0.00000000000000E+00   0.00000000000000E+00   0.00000000000000E+00   0.00000000000000E+00
      6.14147157778760E-17   3.23169834236131E-34   6.14147157778760E-17  -1.05203037289708E-17   5.38785386277483E-03
      5.38785355509410E-03   0.00000000000000E+00   0.00000000000000E+00   1.28356210477824E-09  -1.57742080535558E-34
      1.28356210477824E-09   3.55470742193708E-18
      1.17757077255497E-01
      0.00000000000000E+00   3.26925011377487E-10   0.00000000000000E+00   0.00000000000000E+00  -1.37839201778860E-09
     -1.49208109658761E-34  -1.37839201778860E-09   4.36340730888481E-18   0.00000000000000E+00   0.00000000000000E+00
      0.00000000000000E+00   0.00000000000000E+00   0.00000000000000E+00   0.00000000000000E+00   0.00000000000000E+00
      2.59636663624894E-18   0.00000000000000E+00   0.00000000000000E+00   0.00000000000000E+00   0.00000000000000E+00
      7.17003776518729E-17   2.91511030499106E-34   7.17003776518729E-17  -1.05200685055996E-17   5.88785386277483E-03
      5.88785353235360E-03   0.00000000000000E+00   0.00000000000000E+00   1.37839194608822E-09  -1.42302920840345E-34
      1.37839194608822E-09   3.56029456046585E-18
      1.27757077255497E-01
      0.00000000000000E+00   3.48563402752176E-10   0.00000000000000E+00   0.00000000000000E+00  -1.46958138813964E-09
     -1.73493367178022E-34  -1.46958138813964E-09   4.36326924480875E-18   0.00000000000000E+00   0.00000000000000E+00
      0.00000000000000E+00   0.00000000000000E+00   0.00000000000000E+00   0.00000000000000E+00   0.00000000000000E+00
      2.59068336730471E-18   0.00000000000000E+00   0.00000000000000E+00   0.00000000000000E+00   0.00000000000000E+00
      7.05314332763802E-17   3.19754182997197E-34   7.05314332763802E-17  -1.05198354757905E-17   6.38785386277483E-03
      6.38785351048470E-03   0.00000000000000E+00   0.00000000000000E+00   1.46958131760821E-09  -1.46260815819175E-34
      1.46958131760821E-09   3.56588286367699E-18
      1.37757077255497E-01
      0.00000000000000E+00   3.69366875041086E-10   0.00000000000000E+00   0.00000000000000E+00  -1.55724637385685E-09
     -1.49560429380809E-34  -1.55724637385685E-09   4.36313120464574E-18   0.00000000000000E+00   0.00000000000000E+00
      0.00000000000000E+00   0.00000000000000E+00   0.00000000000000E+00   0.00000000000000E+00   0.00000000000000E+00
      2.58500109436154E-18   0.00000000000000E+00   0.00000000000000E+00   0.00000000000000E+00   0.00000000000000E+00
      6.94130573183838E-17   3.12843984646671E-34   6.94130573183838E-17  -1.05196046236517E-17   6.88785386277483E-03
      6.88785348945968E-03   0.00000000000000E+00   0.00000000000000E+00   1.55724630444380E-09  -1.63283555265862E-34
      1.55724630444380E-09   3.57147232464440E-18
      1.47757077255497E-01
      0.00000000000000E+00   3.89362435099151E-10   0.00000000000000E+00   0.00000000000000E+00  -1.64150132385467E-09
     -1.52909086830479E-34  -1.64150132385467E-09   4.36299318815829E-18   0.00000000000000E+00   0.00000000000000E+00
      0.00000000000000E+00   0.00000000000000E+00   0.00000000000000E+00   0.00000000000000E+00   0.00000000000000E+00
      2.57931980876928E-18   0.00000000000000E+00   0.00000000000000E+00   0.00000000000000E+00   0.00000000000000E+00
      6.82604352754785E-17   3.01405698239518E-34   6.82604352754785E-17  -1.05193759334200E-17   7.38785386277483E-03
      7.38785346925127E-03   0.00000000000000E+00   0.00000000000000E+00   1.64150125559424E-09  -1.48496611409040E-34
      1.64150125559424E-09   3.57706293649237E-18
      1.57757077255497E-01
      0.00000000000000E+00   4.08576632358493E-10   0.00000000000000E+00   0.00000000000000E+00  -1.72245873937592E-09
     -1.39246624312536E-34  -1.72245873937592E-09   4.36285519510626E-18   0.00000000000000E+00   0.00000000000000E+00
      0.00000000000000E+00   0.00000000000000E+00   0.00000000000000E+00   0.00000000000000E+00   0.00000000000000E+00
      2.57363950185843E-18   0.00000000000000E+00   0.00000000000000E+00   0.00000000000000E+00   0.00000000000000E+00
      6.72171518157112E-17   2.76236670636992E-34   6.72171518157112E-17  -1.05191493893145E-17   7.88785386277484E-03
      7.88785344983262E-03   0.00000000000000E+00   0.00000000000000E+00   1.72245867215877E-09  -1.36990046324456E-34
      1.72245867215877E-09   3.58265469234981E-18
      1.67757077255497E-01
      0.00000000000000E+00   4.27035447174040E-10   0.00000000000000E+00   0.00000000000000E+00  -1.80022863063017E-09
     -1.41873717017646E-34  -1.80022863063017E-09   4.36271722525158E-18   0.00000000000000E+00   0.00000000000000E+00
      0.00000000000000E+00   0.00000000000000E+00   0.00000000000000E+00   0.00000000000000E+00   0.00000000000000E+00
      2.56796016514775E-18   0.00000000000000E+00   0.00000000000000E+00   0.00000000000000E+00   0.00000000000000E+00
      6.60964863811624E-17   2.87174318165724E-34   6.60964863811624E-17  -1.05189249758225E-17   8.38785386277484E-03
      8.38785343117748E-03   0.00000000000000E+00   0.00000000000000E+00   1.80022856453368E-09  -1.45300601148077E-34
      1.80022856453368E-09   3.58824758542319E-18
      1.77757077255497E-01
      0.00000000000000E+00   4.44764368261245E-10   0.00000000000000E+00   0.00000000000000E+00  -1.87491901043982E-09
     -1.52372664155632E-34  -1.87491901043982E-09   4.36257927835340E-18   0.00000000000000E+00   0.00000000000000E+00
      0.00000000000000E+00   0.00000000000000E+00   0.00000000000000E+00   0.00000000000000E+00   0.00000000000000E+00
      2.56228179009972E-18   0.00000000000000E+00   0.00000000000000E+00   0.00000000000000E+00   0.00000000000000E+00
      6.88081364547787E-17   2.99462156849364E-34   6.88081364547787E-17  -1.05187026773926E-17   8.88785386277484E-03
      8.88785341326006E-03   0.00000000000000E+00   0.00000000000000E+00   1.87491894163168E-09  -1.47089492693732E-34
      1.87491894163168E-09   3.59384160893941E-18
      1.87757077255497E-01
      0.00000000000000E+00   4.61788322461873E-10   0.00000000000000E+00   0.00000000000000E+00  -1.94663538479027E-09
     -1.63674955107277E-34  -1.94663538479027E-09   4.36244135417011E-18   0.00000000000000E+00   0.00000000000000E+00
      0.00000000000000E+00   0.00000000000000E+00   0.00000000000000E+00   0.00000000000000E+00   0.00000000000000E+00
      2.55660436823229E-18   0.00000000000000E+00   0.00000000000000E+00   0.00000000000000E+00   0.00000000000000E+00
      6.39883333089069E-17   3.13074210942558E-34   6.39883333089069E-17  -1.05184824785542E-17   9.38785386277484E-03
      9.38785339605518E-03   0.00000000000000E+00   0.00000000000000E+00   1.94663532080194E-09  -1.49399255835281E-34
      1.94663532080194E-09   3.59943675615185E-18
      1.97757077255497E-01
      0.00000000000000E+00   4.78131597306283E-10   0.00000000000000E+00   0.00000000000000E+00  -2.01548061419915E-09