DF-ISE text

Info {
  version   = 1.0
  type      = xyplot
  datasets  = [
    "time"
    "source OuterVoltage" "source InnerVoltage" "source QuasiFermiPotential" "source DisplacementCurrent" "source eCurrent"
    "source hCurrent" "source TotalCurrent" "source Charge" "gate OuterVoltage" "gate InnerVoltage"
    "gate QuasiFermiPotential" "gate DisplacementCurrent" "gate eCurrent" "gate hCurrent" "gate TotalCurrent"
    "gate Charge" "substrate OuterVoltage" "substrate InnerVoltage" "substrate QuasiFermiPotential" "substrate DisplacementCurrent"
    "substrate eCurrent" "substrate hCurrent" "substrate TotalCurrent" "substrate Charge" "drain OuterVoltage"
    "drain InnerVoltage" "drain QuasiFermiPotential" "drain DisplacementCurrent" "drain eCurrent" "drain hCurrent"
    "drain TotalCurrent" "drain Charge" ]
  functions = [
    Time
    OuterVoltage InnerVoltage QuasiFermiPotential DisplacementCurrent eCurrent
    hCurrent TotalCurrent Charge OuterVoltage InnerVoltage
    QuasiFermiPotential DisplacementCurrent eCurrent hCurrent TotalCurrent
    Charge OuterVoltage InnerVoltage QuasiFermiPotential DisplacementCurrent
    eCurrent hCurrent TotalCurrent Charge OuterVoltage
    InnerVoltage QuasiFermiPotential DisplacementCurrent eCurrent hCurrent
    TotalCurrent Charge ]
}

Data {
      0.00000000000000E+00
      0.00000000000000E+00   0.00000000000000E+00   0.00000000000000E+00   0.00000000000000E+00  -2.16219730671329E-20
     -1.37492568112394E-34  -2.16219730671330E-20   4.53536903055685E-18   0.00000000000000E+00   0.00000000000000E+00
      0.00000000000000E+00   0.00000000000000E+00   0.00000000000000E+00   0.00000000000000E+00   0.00000000000000E+00
      3.43243454986866E-18   0.00000000000000E+00   0.00000000000000E+00   0.00000000000000E+00   0.00000000000000E+00
      2.09881111372135E-20   3.02112397674379E-34   2.09881111372138E-20  -1.16959416036640E-17   0.00000000000000E+00
      0.00000000000000E+00   0.00000000000000E+00   0.00000000000000E+00   6.33861929919354E-22  -1.64619829561984E-34
      6.33861929919190E-22   3.72813802323846E-18
      0.00000000000000E+00
      0.00000000000000E+00   0.00000000000000E+00   0.00000000000000E+00   0.00000000000000E+00  -1.42810736538507E-19
     -1.33637548823849E-34  -1.42810736538507E-19   4.53376007364687E-18   0.00000000000000E+00   0.00000000000000E+00
      0.00000000000000E+00   0.00000000000000E+00   0.00000000000000E+00   0.00000000000000E+00   0.00000000000000E+00
      3.42593871679663E-18   0.00000000000000E+00   0.00000000000000E+00   0.00000000000000E+00   0.00000000000000E+00
      2.21012751795299E-19   2.92096001979446E-34   2.21012751795299E-19  -1.16865512554367E-17   0.00000000000000E+00
      0.00000000000000E+00   0.00000000000000E+00   0.00000000000000E+00  -7.82020152567919E-20  -1.58458453155597E-34
     -7.82020152567920E-20   3.72685246499316E-18
      1.00000000000000E-03
      0.00000000000000E+00   3.69002695750797E-11   0.00000000000000E+00   0.00000000000000E+00  -1.60042934420326E-10
     -1.53692499572273E-34  -1.60042934420326E-10   4.53358292016915E-18   0.00000000000000E+00   0.00000000000000E+00
      0.00000000000000E+00   0.00000000000000E+00   0.00000000000000E+00   0.00000000000000E+00   0.00000000000000E+00
      3.41571485581055E-18   0.00000000000000E+00   0.00000000000000E+00   0.00000000000000E+00   0.00000000000000E+00
      5.43817584891507E-20   2.98459870814529E-34   5.43817584891510E-20  -1.16860091790745E-17   8.60000000000000E-04
      8.59999963015129E-04   0.00000000000000E+00   0.00000000000000E+00   1.60042934365944E-10  -1.44767371242256E-34
      1.60042934365944E-10   3.73671140309485E-18
      2.08666666666667E-03
      0.00000000000000E+00   7.47106292180917E-11   0.00000000000000E+00   0.00000000000000E+00  -3.24020316825824E-10
     -1.25207280865190E-34  -3.24020316825824E-10   4.53339046989219E-18   0.00000000000000E+00   0.00000000000000E+00
      0.00000000000000E+00   0.00000000000000E+00   0.00000000000000E+00   0.00000000000000E+00   0.00000000000000E+00
      3.40460844486911E-18   0.00000000000000E+00   0.00000000000000E+00   0.00000000000000E+00   0.00000000000000E+00
      1.56020459902308E-15   2.79490944866108E-34   1.56020459902308E-15  -1.16854281680570E-17   1.79453333333333E-03
      1.79453325845169E-03   0.00000000000000E+00   0.00000000000000E+00   3.24018756621225E-10  -1.54283664000919E-34
      3.24018756621225E-10   3.74742925329576E-18
      3.28200000000000E-03
      0.00000000000000E+00   1.13594347122993E-10   0.00000000000000E+00   0.00000000000000E+00  -4.92634586725609E-10
     -1.30199684102755E-34  -4.92634586725609E-10   4.53317884176475E-18   0.00000000000000E+00   0.00000000000000E+00
      0.00000000000000E+00   0.00000000000000E+00   0.00000000000000E+00   0.00000000000000E+00   0.00000000000000E+00
      3.39239555527871E-18   0.00000000000000E+00   0.00000000000000E+00   0.00000000000000E+00   0.00000000000000E+00
      2.65190231951899E-19   2.73293677638612E-34   2.65190231951899E-19  -1.16847986089554E-17   2.82252000000000E-03
      2.82251988614651E-03   0.00000000000000E+00   0.00000000000000E+00   4.92634586460419E-10  -1.43093993535857E-34
      4.92634586460419E-10   3.75922421191194E-18
      4.58889777777778E-03
      0.00000000000000E+00   1.52996005281205E-10   0.00000000000000E+00   0.00000000000000E+00  -6.63474929927453E-10
     -1.39220801407003E-34  -6.63474929927453E-10   4.53294754085335E-18   0.00000000000000E+00   0.00000000000000E+00
      0.00000000000000E+00   0.00000000000000E+00   0.00000000000000E+00   0.00000000000000E+00   0.00000000000000E+00
      3.37904769709776E-18   0.00000000000000E+00   0.00000000000000E+00   0.00000000000000E+00   0.00000000000000E+00
     -2.01696991461380E-19   2.77055128846023E-34  -2.01696991461380E-19  -1.16841215828198E-17   3.94645208888889E-03
      3.94645193554470E-03   0.00000000000000E+00   0.00000000000000E+00   6.63474930129149E-10  -1.37834327439020E-34
      6.63474930129149E-10   3.77212634486866E-18
      6.01777268148148E-03
      0.00000000000000E+00   1.92562434031854E-10   0.00000000000000E+00   0.00000000000000E+00  -8.35006893751462E-10
     -1.29674154646235E-34  -8.35006893751462E-10   4.53269474454637E-18   0.00000000000000E+00   0.00000000000000E+00
      0.00000000000000E+00   0.00000000000000E+00   0.00000000000000E+00   0.00000000000000E+00   0.00000000000000E+00
      3.36445978337393E-18   0.00000000000000E+00   0.00000000000000E+00   0.00000000000000E+00   0.00000000000000E+00
      3.21363125025382E-20   2.72260642069926E-34   3.21363125025385E-20  -1.16833946588156E-17   5.17528450607408E-03
      5.17528431307440E-03   0.00000000000000E+00   0.00000000000000E+00   8.35006893719326E-10  -1.42586487423691E-34
      8.35006893719326E-10   3.78624013089531E-18
      7.58000924286420E-03
      0.00000000000000E+00   2.31904267816518E-10   0.00000000000000E+00   0.00000000000000E+00  -1.00554023301870E-09
     -1.22892786118153E-34  -1.00554023301870E-09   4.53241846206181E-18   0.00000000000000E+00   0.00000000000000E+00
      0.00000000000000E+00   0.00000000000000E+00   0.00000000000000E+00   0.00000000000000E+00   0.00000000000000E+00
      3.34851705208155E-18   0.00000000000000E+00   0.00000000000000E+00   0.00000000000000E+00   0.00000000000000E+00
     -4.87474220323537E-20   2.47787062164094E-34  -4.87474220323535E-20  -1.16826155114870E-17   6.51880794886321E-03
      6.51880771643351E-03   0.00000000000000E+00   0.00000000000000E+00   1.00554023306744E-09  -1.24894276045941E-34
      1.00554023306744E-09   3.80167999734366E-18
      9.28805454997597E-03
      0.00000000000000E+00   2.70600165501601E-10   0.00000000000000E+00   0.00000000000000E+00  -1.17324739012185E-09
     -1.49668281785895E-34  -1.17324739012185E-09   4.53211651894186E-18   0.00000000000000E+00   0.00000000000000E+00
      0.00000000000000E+00   0.00000000000000E+00   0.00000000000000E+00   0.00000000000000E+00   0.00000000000000E+00
      3.33109418016276E-18   0.00000000000000E+00   0.00000000000000E+00   0.00000000000000E+00   0.00000000000000E+00
     -1.24945114572793E-19   2.54183896863363E-34  -1.24945114572793E-19  -1.16817819789633E-17   7.98772691297934E-03
      7.98772664176725E-03   0.00000000000000E+00   0.00000000000000E+00   1.17324739024679E-09  -1.04515615077468E-34
      1.17324739024679E-09   3.81857127985868E-18
      1.11555174190848E-02
      0.00000000000000E+00   3.08205038419510E-10   0.00000000000000E+00   0.00000000000000E+00  -1.33619943027821E-09
     -1.39557281987825E-34  -1.33619943027821E-09   4.53178654009021E-18   0.00000000000000E+00   0.00000000000000E+00
      0.00000000000000E+00   0.00000000000000E+00   0.00000000000000E+00   0.00000000000000E+00   0.00000000000000E+00
      3.31205431645360E-18   0.00000000000000E+00   0.00000000000000E+00   0.00000000000000E+00   0.00000000000000E+00
      1.85743370420188E-19   2.54452219755198E-34   1.85743370420188E-19  -1.16808921323794E-17   9.59374498041296E-03
      9.59374467151205E-03   0.00000000000000E+00   0.00000000000000E+00   1.33619943009247E-09  -1.14894937767373E-34
      1.33619943009247E-09   3.83705127583556E-18
      1.31972768226439E-02
      0.00000000000000E+00   3.44262281026161E-10   0.00000000000000E+00   0.00000000000000E+00  -1.49241937570451E-09
     -1.37244107026305E-34  -1.49241937570451E-09   4.53142593120118E-18   0.00000000000000E+00   0.00000000000000E+00
      0.00000000000000E+00   0.00000000000000E+00   0.00000000000000E+00   0.00000000000000E+00   0.00000000000000E+00
      3.29124802510198E-18   0.00000000000000E+00   0.00000000000000E+00   0.00000000000000E+00   0.00000000000000E+00
     -1.40501740585725E-19   2.52574946688178E-34  -1.40501740585725E-19  -1.16799443569224E-17   1.13496580674737E-02
      1.13496577224351E-02   0.00000000000000E+00   0.00000000000000E+00   1.49241937584501E-09  -1.15330839661874E-34
      1.49241937584501E-09   3.85727040061929E-18
      1.54296004372017E-02
      0.00000000000000E+00   3.78319444035299E-10   0.00000000000000E+00   0.00000000000000E+00  -1.63995051594558E-09
     -1.18955512117969E-34  -1.63995051594558E-09   4.53103185841469E-18   0.00000000000000E+00   0.00000000000000E+00
      0.00000000000000E+00   0.00000000000000E+00   0.00000000000000E+00   0.00000000000000E+00   0.00000000000000E+00
      3.26851213140112E-18   0.00000000000000E+00   0.00000000000000E+00   0.00000000000000E+00   0.00000000000000E+00
     -2.66752305408840E-21   2.10396510258354E-34  -2.66752305408819E-21  -1.16789374461789E-17   1.32694563759935E-02
      1.32694559968215E-02   0.00000000000000E+00   0.00000000000000E+00   1.63995051594825E-09  -9.14409981403851E-35
      1.63995051594825E-09   3.87939345636304E-18
      1.78702742557850E-02
      0.00000000000000E+00   4.09949312218747E-10   0.00000000000000E+00   0.00000000000000E+00  -1.77694815619462E-09
     -1.35121271135352E-34  -1.77694815619462E-09   4.53060122596938E-18   0.00000000000000E+00   0.00000000000000E+00
      0.00000000000000E+00   0.00000000000000E+00   0.00000000000000E+00   0.00000000000000E+00   0.00000000000000E+00
      3.24366845735663E-18   0.00000000000000E+00   0.00000000000000E+00   0.00000000000000E+00   0.00000000000000E+00
      5.54781801825283E-20   2.27622973252082E-34   5.54781801825285E-20  -1.16778707071238E-17   1.53684358599751E-02
      1.53684354491022E-02   0.00000000000000E+00   0.00000000000000E+00   1.77694815613914E-09  -9.25017021167294E-35
      1.77694815613914E-09   3.90360102379774E-18
      2.05387442974361E-02
      0.00000000000000E+00   4.38773137723259E-10   0.00000000000000E+00   0.00000000000000E+00  -1.90178058395068E-09
     -1.45027127973980E-34  -1.90178058395068E-09   4.53013065170577E-18   0.00000000000000E+00   0.00000000000000E+00
      0.00000000000000E+00   0.00000000000000E+00   0.00000000000000E+00   0.00000000000000E+00   0.00000000000000E+00
      3.21652243960174E-18   0.00000000000000E+00   0.00000000000000E+00   0.00000000000000E+00   0.00000000000000E+00
      1.63606609585227E-20   2.28603155556522E-34   1.63606609585229E-20  -1.16767440801858E-17   1.76633200957950E-02
      1.76633196560329E-02   0.00000000000000E+00   0.00000000000000E+00   1.90178058393432E-09  -8.35760275825425E-35
      1.90178058393432E-09   3.93009098887827E-18
      2.34562715429746E-02
      0.00000000000000E+00   4.64486370770512E-10   0.00000000000000E+00   0.00000000000000E+00  -2.01314060429970E-09
     -1.32577317830757E-34  -2.01314060429970E-09   4.52961644019739E-18   0.00000000000000E+00   0.00000000000000E+00
      0.00000000000000E+00   0.00000000000000E+00   0.00000000000000E+00   0.00000000000000E+00   0.00000000000000E+00
      3.18686161741516E-18   0.00000000000000E+00   0.00000000000000E+00   0.00000000000000E+00   0.00000000000000E+00
      5.01733863940582E-20   2.07158192458388E-34   5.01733863940584E-20  -1.16755582748873E-17   2.01723935269581E-02
      2.01723930614237E-02   0.00000000000000E+00   0.00000000000000E+00   2.01314060424953E-09  -7.45808746276312E-35
      2.01314060424953E-09   3.95908021727473E-18
      2.66461013314300E-02
      0.00000000000000E+00   4.86887085036327E-10   0.00000000000000E+00   0.00000000000000E+00  -2.11016890628563E-09
     -1.35936405808432E-34  -2.11016890628563E-09   4.52905455317298E-18   0.00000000000000E+00   0.00000000000000E+00
      0.00000000000000E+00   0.00000000000000E+00   0.00000000000000E+00   0.00000000000000E+00   0.00000000000000E+00
      3.15445397312537E-18   0.00000000000000E+00   0.00000000000000E+00   0.00000000000000E+00   0.00000000000000E+00
      1.38979005369231E-19   2.05350957772273E-34   1.38979005369231E-19  -1.16743149152192E-17   2.29156471450298E-02
      2.29156466570424E-02   0.00000000000000E+00   0.00000000000000E+00   2.11016890614665E-09  -6.94145519638409E-35
      2.11016890614665E-09   3.99080638892081E-18
      3.01336485668079E-02
      0.00000000000000E+00   5.05904010138516E-10   0.00000000000000E+00   0.00000000000000E+00  -2.19257501039936E-09
     -1.30506332938996E-34  -2.19257501039936E-09   4.52844057699175E-18   0.00000000000000E+00   0.00000000000000E+00
      0.00000000000000E+00   0.00000000000000E+00   0.00000000000000E+00   0.00000000000000E+00   0.00000000000000E+00
      3.11904610986812E-18   0.00000000000000E+00   0.00000000000000E+00   0.00000000000000E+00   0.00000000000000E+00
      1.89316788247549E-20   1.91643884484895E-34   1.89316788247551E-20  -1.16730166935752E-17   2.59149377674548E-02
      2.59149372604053E-02   0.00000000000000E+00   0.00000000000000E+00   2.19257501038043E-09  -6.11375515459000E-35
      2.19257501038043E-09   4.02553000671537E-18
      3.39467002108211E-02
      0.00000000000000E+00   5.21620664692000E-10   0.00000000000000E+00   0.00000000000000E+00  -2.26074105661417E-09
     -1.46073526186368E-34  -2.26074105661417E-09   4.52776968698615E-18   0.00000000000000E+00   0.00000000000000E+00
      0.00000000000000E+00   0.00000000000000E+00   0.00000000000000E+00   0.00000000000000E+00   0.00000000000000E+00
      3.08036125416529E-18   0.00000000000000E+00   0.00000000000000E+00   0.00000000000000E+00   0.00000000000000E+00
     -4.07635192539138E-19   2.04280011448655E-34  -4.07635192539138E-19  -1.16716675383620E-17   2.91941621813061E-02
      2.91941616585024E-02   0.00000000000000E+00   0.00000000000000E+00   2.26074105702180E-09  -5.82064852622879E-35
      2.26074105702180E-09   4.06353659721059E-18
      3.81156366749421E-02
      0.00000000000000E+00   5.34291500572611E-10   0.00000000000000E+00   0.00000000000000E+00  -2.31579044462418E-09
     -1.44726316503399E-34  -2.31579044462418E-09   4.52703660828627E-18   0.00000000000000E+00   0.00000000000000E+00
      0.00000000000000E+00   0.00000000000000E+00   0.00000000000000E+00   0.00000000000000E+00   0.00000000000000E+00
      3.03809705707947E-18   0.00000000000000E+00   0.00000000000000E+00   0.00000000000000E+00   0.00000000000000E+00
     -6.74901511223330E-19   2.01004551430311E-34  -6.74901511223330E-19  -1.16702727816769E-17   3.27794475404502E-02
      3.27794470049461E-02   0.00000000000000E+00   0.00000000000000E+00   2.31579044529909E-09  -5.62782349269116E-35
      2.31579044529909E-09   4.10513911631123E-18
      4.26736738757145E-02
      0.00000000000000E+00   5.44343163230992E-10   0.00000000000000E+00   0.00000000000000E+00  -2.35959102275493E-09
     -1.21861763672772E-34  -2.35959102275493E-09   4.52623557294667E-18   0.00000000000000E+00   0.00000000000000E+00
      0.00000000000000E+00   0.00000000000000E+00   0.00000000000000E+00   0.00000000000000E+00   0.00000000000000E+00
      2.99192317352010E-18   0.00000000000000E+00   0.00000000000000E+00   0.00000000000000E+00   0.00000000000000E+00
     -1.53304138564303E-18   1.68560487112340E-34  -1.53304138564303E-18  -1.16688393241420E-17   3.66993595331145E-02
      3.66993589875382E-02   0.00000000000000E+00   0.00000000000000E+00   2.35959102428797E-09  -4.66987234395672E-35
      2.35959102428797E-09   4.15068057767521E-18
      4.76571278818923E-02
      0.00000000000000E+00   5.52352126365196E-10   0.00000000000000E+00   0.00000000000000E+00  -2.39465540735423E-09
     -1.32974874142449E-34  -2.39465540735423E-09   4.52536027338185E-18   0.00000000000000E+00   0.00000000000000E+00
      0.00000000000000E+00   0.00000000000000E+00   0.00000000000000E+00   0.00000000000000E+00   0.00000000000000E+00
      2.94147860668906E-18   0.00000000000000E+00   0.00000000000000E+00   0.00000000000000E+00   0.00000000000000E+00
     -2.31557814507651E-18   1.69492770669436E-34  -2.31557814507651E-18  -1.16673758049911E-17   4.09851299784274E-02
      4.09851294248319E-02   0.00000000000000E+00   0.00000000000000E+00   2.39465540966981E-09  -3.65178965269873E-35
      2.39465540966981E-09   4.20053692492016E-18
      5.31057042619801E-02
      0.00000000000000E+00   5.58994198859053E-10   0.00000000000000E+00   0.00000000000000E+00  -2.42392023904326E-09
     -1.28071373070849E-34  -2.42392023904326E-09   4.52440381188110E-18   0.00000000000000E+00   0.00000000000000E+00
      0.00000000000000E+00   0.00000000000000E+00   0.00000000000000E+00   0.00000000000000E+00   0.00000000000000E+00
      2.88636878921222E-18   0.00000000000000E+00   0.00000000000000E+00   0.00000000000000E+00   0.00000000000000E+00
     -4.48330061314318E-18   1.62804877922536E-34  -4.48330061314318E-18  -1.16658927625722E-17   4.56709056653029E-02
      4.56709051050666E-02   0.00000000000000E+00   0.00000000000000E+00   2.42392024352656E-09  -3.47335048516878E-35
      2.42392024352656E-09   4.25512016147897E-18
      5.90628144375427E-02
      0.00000000000000E+00   5.64962900323217E-10   0.00000000000000E+00   0.00000000000000E+00  -2.45039207748236E-09
     -1.39230245756539E-34  -2.45039207748236E-09   4.52335864664935E-18   0.00000000000000E+00   0.00000000000000E+00
      0.00000000000000E+00   0.00000000000000E+00   0.00000000000000E+00   0.00000000000000E+00   0.00000000000000E+00
      2.82616240562207E-18   0.00000000000000E+00   0.00000000000000E+00   0.00000000000000E+00   0.00000000000000E+00
     -7.32233365465294E-18   1.65854168651172E-34  -7.32233365465294E-18  -1.16644028160080E-17   5.07940204162867E-02
      5.07940198500961E-02   0.00000000000000E+00   0.00000000000000E+00   2.45039208480470E-09  -2.66239228946330E-35
      2.45039208480470E-09   4.31488176373663E-18
      6.55759215628244E-02
      0.00000000000000E+00   5.70860652294830E-10   0.00000000000000E+00   0.00000000000000E+00  -2.47667436079620E-09
     -1.41130432997896E-34  -2.47667436079620E-09   4.52221653423022E-18   0.00000000000000E+00   0.00000000000000E+00
      0.00000000000000E+00   0.00000000000000E+00   0.00000000000000E+00   0.00000000000000E+00   0.00000000000000E+00
      2.76038794304062E-18   0.00000000000000E+00   0.00000000000000E+00   0.00000000000000E+00   0.00000000000000E+00
     -2.31715516676344E-19   1.64149180777812E-34  -2.31715516676344E-19  -1.16629208734347E-17   5.63952925440290E-02
      5.63952919719693E-02   0.00000000000000E+00   0.00000000000000E+00   2.47667436102792E-09  -2.30187477799158E-35
      2.47667436102792E-09   4.38031639616381E-18
      7.26534979722973E-02
      0.00000000000000E+00   5.77077577200982E-10   0.00000000000000E+00   0.00000000000000E+00  -2.50444217705803E-09
     -1.36118083751565E-34  -2.50444217705803E-09   4.52097607442815E-18   0.00000000000000E+00   0.00000000000000E+00
      0.00000000000000E+00   0.00000000000000E+00   0.00000000000000E+00   0.00000000000000E+00   0.00000000000000E+00
      2.68896794292056E-18   0.00000000000000E+00   0.00000000000000E+00   0.00000000000000E+00   0.00000000000000E+00
     -2.37402550039056E-19   1.55027277147351E-34  -2.37402550039055E-19  -1.16614727583810E-17   6.24820082561757E-02
      6.24820076779438E-02   0.00000000000000E+00   0.00000000000000E+00   2.50444217729543E-09  -1.89091933957862E-35
      2.50444217729543E-09   4.45152874103230E-18
      8.03444643372578E-02
      0.00000000000000E+00   5.83876058447589E-10   0.00000000000000E+00   0.00000000000000E+00  -2.53482644314502E-09
     -1.35976790623513E-34  -2.53482644314502E-09   4.51962877994835E-18   0.00000000000000E+00   0.00000000000000E+00
      0.00000000000000E+00   0.00000000000000E+00   0.00000000000000E+00   0.00000000000000E+00   0.00000000000000E+00
      2.61141668984388E-18   0.00000000000000E+00   0.00000000000000E+00   0.00000000000000E+00   0.00000000000000E+00
     -1.39484435593396E-19   1.48476500881197E-34  -1.39484435593395E-19  -1.16600769321623E-17   6.90962393300417E-02
      6.90962387450717E-02   0.00000000000000E+00   0.00000000000000E+00   2.53482644328450E-09  -1.24997102576849E-35
      2.53482644328450E-09   4.52903146237016E-18
      8.87019811205149E-02
      0.00000000000000E+00   5.91387309281438E-10   0.00000000000000E+00   0.00000000000000E+00  -2.56839889497366E-09
     -1.43433274104425E-34  -2.56839889497366E-09   4.51816543476280E-18   0.00000000000000E+00   0.00000000000000E+00
      0.00000000000000E+00   0.00000000000000E+00   0.00000000000000E+00   0.00000000000000E+00   0.00000000000000E+00
      2.52720647921593E-18   0.00000000000000E+00   0.00000000000000E+00   0.00000000000000E+00   0.00000000000000E+00
     -3.08929523427727E-19   1.56082477285854E-34  -3.08929523427726E-19  -1.16587543138540E-17   7.62837037636428E-02
      7.62837031712325E-02   0.00000000000000E+00   0.00000000000000E+00   2.56839889528259E-09  -1.26492031814290E-35
      2.56839889528259E-09   4.61338239987528E-18
      9.77838160249876E-02
      0.00000000000000E+00   5.99623712867652E-10   0.00000000000000E+00   0.00000000000000E+00  -2.60522112810930E-09
     -1.47310406469313E-34  -2.60522112810930E-09   4.51657603347735E-18   0.00000000000000E+00   0.00000000000000E+00
      0.00000000000000E+00   0.00000000000000E+00   0.00000000000000E+00   0.00000000000000E+00   0.00000000000000E+00
      2.43576407714939E-18   0.00000000000000E+00   0.00000000000000E+00   0.00000000000000E+00   0.00000000000000E+00
      1.92451739322130E-19   1.56847494107719E-34   1.92451739322130E-19  -1.16575285212253E-17   8.40940817814893E-02
      8.40940811809219E-02   0.00000000000000E+00   0.00000000000000E+00   2.60522112791685E-09  -9.53708763840663E-36
      2.60522112791685E-09   4.70518841059857E-18
      1.07652743287848E-01
      0.00000000000000E+00   6.08580577187434E-10   0.00000000000000E+00   0.00000000000000E+00  -2.64528920026413E-09
     -1.41758906990998E-34  -2.64528920026413E-09   4.51484970528967E-18   0.00000000000000E+00   0.00000000000000E+00
      0.00000000000000E+00   0.00000000000000E+00   0.00000000000000E+00   0.00000000000000E+00   0.00000000000000E+00
      2.33646656957240E-18   0.00000000000000E+00   0.00000000000000E+00   0.00000000000000E+00   0.00000000000000E+00
     -2.34561724407458E-20   1.48478092705411E-34  -2.34561724407457E-20  -1.16564257678298E-17   9.25813592275492E-02
      9.25813586181180E-02   0.00000000000000E+00   0.00000000000000E+00   2.64528920028759E-09  -6.71918571441275E-36
      2.64528920028759E-09   4.80510949296771E-18
      1.17652743287848E-01
      0.00000000000000E+00   6.17652729897067E-10   0.00000000000000E+00   0.00000000000000E+00  -2.68590542946508E-09
     -1.37796019842358E-34  -2.68590542946508E-09   4.51310123460763E-18   0.00000000000000E+00   0.00000000000000E+00
      0.00000000000000E+00   0.00000000000000E+00   0.00000000000000E+00   0.00000000000000E+00   0.00000000000000E+00
      2.23591663584313E-18   0.00000000000000E+00   0.00000000000000E+00   0.00000000000000E+00   0.00000000000000E+00
     -2.32051872892228E-20   1.42874162981774E-34  -2.32051872892226E-20  -1.16555313207064E-17   1.01181359227549E-01
      1.01181358609150E-01   0.00000000000000E+00   0.00000000000000E+00   2.68590542948828E-09  -5.07814313941582E-36
      2.68590542948828E-09   4.90651345025558E-18
      1.27652743287848E-01
      0.00000000000000E+00   6.26738723948763E-10   0.00000000000000E+00   0.00000000000000E+00  -2.72661582093120E-09
     -1.30238460196421E-34  -2.72661582093120E-09   4.51135347799319E-18   0.00000000000000E+00   0.00000000000000E+00
      0.00000000000000E+00   0.00000000000000E+00   0.00000000000000E+00   0.00000000000000E+00   0.00000000000000E+00
      2.13542655006072E-18   0.00000000000000E+00   0.00000000000000E+00   0.00000000000000E+00   0.00000000000000E+00
     -1.71566708427852E-19   1.34031834980612E-34  -1.71566708427852E-19  -1.16548422639230E-17   1.09781359227549E-01
      1.09781358600169E-01   0.00000000000000E+00   0.00000000000000E+00   2.72661582110277E-09  -3.79337478419120E-36
      2.72661582110277E-09   5.00806223586913E-18
      1.37652743287848E-01
      0.00000000000000E+00   6.35855662873584E-10   0.00000000000000E+00   0.00000000000000E+00  -2.76749495651607E-09
     -1.39606375590617E-34  -2.76749495651607E-09   4.50960637237310E-18   0.00000000000000E+00   0.00000000000000E+00
      0.00000000000000E+00   0.00000000000000E+00   0.00000000000000E+00   0.00000000000000E+00   0.00000000000000E+00
      2.03499042430751E-18   0.00000000000000E+00   0.00000000000000E+00   0.00000000000000E+00   0.00000000000000E+00
      1.95367984447320E-19   1.42290045449964E-34   1.95367984447320E-19  -1.16543416734564E-17   1.18381359227549E-01
      1.18381358591149E-01   0.00000000000000E+00   0.00000000000000E+00   2.76749495632070E-09  -2.68366985934703E-36
      2.76749495632070E-09   5.10974487677577E-18
      1.47652743287848E-01
      0.00000000000000E+00   6.45016585222557E-10   0.00000000000000E+00   0.00000000000000E+00  -2.80859915901398E-09
     -1.50680350438412E-34  -2.80859915901398E-09   4.50785986254652E-18   0.00000000000000E+00   0.00000000000000E+00
      0.00000000000000E+00   0.00000000000000E+00   0.00000000000000E+00   0.00000000000000E+00   0.00000000000000E+00
      1.93460318955339E-18   0.00000000000000E+00   0.00000000000000E+00   0.00000000000000E+00   0.00000000000000E+00
     -8.04555880494677E-20   1.52778867928325E-34  -8.04555880494675E-20  -1.16540143967037E-17   1.26981359227549E-01
      1.26981358582078E-01   0.00000000000000E+00   0.00000000000000E+00   2.80859915909444E-09  -2.09851748991250E-36
      2.80859915909444E-09   5.21155134460374E-18
      1.57652743287848E-01
      0.00000000000000E+00   6.54229741147631E-10   0.00000000000000E+00   0.00000000000000E+00  -2.84996339515923E-09
     -1.27146668231329E-34  -2.84996339515923E-09   4.50611389814378E-18   0.00000000000000E+00   0.00000000000000E+00
      0.00000000000000E+00   0.00000000000000E+00   0.00000000000000E+00   0.00000000000000E+00   0.00000000000000E+00
      1.83426037670213E-18   0.00000000000000E+00   0.00000000000000E+00   0.00000000000000E+00   0.00000000000000E+00
      2.21119034292944E-19   1.28749013700072E-34   2.21119034292944E-19  -1.16538467255527E-17   1.35581359227549E-01
      1.35581358572952E-01   0.00000000000000E+00   0.00000000000000E+00   2.84996339493811E-09  -1.60234546874271E-36
      2.84996339493811E-09   5.31347245070677E-18
      1.67652743287848E-01
      0.00000000000000E+00   6.63498701821644E-10   0.00000000000000E+00   0.00000000000000E+00  -2.89160217690089E-09
     -1.42079801876189E-34  -2.89160217690089E-09   4.50436843321110E-18   0.00000000000000E+00   0.00000000000000E+00
      0.00000000000000E+00   0.00000000000000E+00   0.00000000000000E+00   0.00000000000000E+00   0.00000000000000E+00
      1.73395802579510E-18   0.00000000000000E+00   0.00000000000000E+00   0.00000000000000E+00   0.00000000000000E+00
     -8.52267098792772E-20   1.43332803754276E-34  -8.52267098792770E-20  -1.16538262217493E-17   1.44181359227549E-01
      1.44181358563771E-01   0.00000000000000E+00   0.00000000000000E+00   2.89160217698612E-09  -1.25300187808705E-36
      2.89160217698612E-09   5.41549976274314E-18
      1.77652743287848E-01
      0.00000000000000E+00   6.72823800606975E-10   0.00000000000000E+00   0.00000000000000E+00  -2.93351628291201E-09
     -1.36249740020079E-34  -2.93351628291201E-09   4.50262342627572E-18   0.00000000000000E+00   0.00000000000000E+00
      0.00000000000000E+00   0.00000000000000E+00   0.00000000000000E+00   0.00000000000000E+00   0.00000000000000E+00
      1.63369263920431E-18   0.00000000000000E+00   0.00000000000000E+00   0.00000000000000E+00   0.00000000000000E+00
      4.60669152324662E-20   1.37101283665116E-34   4.60669152324663E-20  -1.16539415999304E-17   1.52781359227549E-01
      1.52781358554538E-01   0.00000000000000E+00   0.00000000000000E+00   2.93351628286594E-09  -8.51543645036919E-37
      2.93351628286594E-09   5.51762553445031E-18
      1.87652743287848E-01
      0.00000000000000E+00   6.82203918925436E-10   0.00000000000000E+00   0.00000000000000E+00  -2.97570068899614E-09