DF-ISE text

Info {
  version   = 1.0
  type      = xyplot
  datasets  = [
    "time"
    "source OuterVoltage" "source InnerVoltage" "source QuasiFermiPotential" "source DisplacementCurrent" "source eCurrent"
    "source hCurrent" "source TotalCurrent" "source Charge" "gate OuterVoltage" "gate InnerVoltage"
    "gate QuasiFermiPotential" "gate DisplacementCurrent" "gate eCurrent" "gate hCurrent" "gate TotalCurrent"
    "gate Charge" "substrate OuterVoltage" "substrate InnerVoltage" "substrate QuasiFermiPotential" "substrate DisplacementCurrent"
    "substrate eCurrent" "substrate hCurrent" "substrate TotalCurrent" "substrate Charge" "drain OuterVoltage"
    "drain InnerVoltage" "drain QuasiFermiPotential" "drain DisplacementCurrent" "drain eCurrent" "drain hCurrent"
    "drain TotalCurrent" "drain Charge" ]
  functions = [
    Time
    OuterVoltage InnerVoltage QuasiFermiPotential DisplacementCurrent eCurrent
    hCurrent TotalCurrent Charge OuterVoltage InnerVoltage
    QuasiFermiPotential DisplacementCurrent eCurrent hCurrent TotalCurrent
    Charge OuterVoltage InnerVoltage QuasiFermiPotential DisplacementCurrent
    eCurrent hCurrent TotalCurrent Charge OuterVoltage
    InnerVoltage QuasiFermiPotential DisplacementCurrent eCurrent hCurrent
    TotalCurrent Charge ]
}

Data {
      0.00000000000000E+00
      0.00000000000000E+00   0.00000000000000E+00   0.00000000000000E+00   0.00000000000000E+00   7.76995479021928E-22
      5.78527689896839E-34   7.76995479022506E-22   4.75389778745057E-18   0.00000000000000E+00   0.00000000000000E+00
      0.00000000000000E+00   0.00000000000000E+00   0.00000000000000E+00   0.00000000000000E+00   0.00000000000000E+00
      3.40424649395695E-18   0.00000000000000E+00   0.00000000000000E+00   0.00000000000000E+00   0.00000000000000E+00
     -6.02279671398693E-22  -1.16296953395590E-33  -6.02279671399856E-22  -1.21160455290322E-17   0.00000000000000E+00
      0.00000000000000E+00   0.00000000000000E+00   0.00000000000000E+00  -1.74715807623235E-22   5.84441844059061E-34
     -1.74715807622651E-22   3.95790124762470E-18
      0.00000000000000E+00
      0.00000000000000E+00   0.00000000000000E+00   0.00000000000000E+00   0.00000000000000E+00   6.25117626984508E-21
      6.05977401032765E-34   6.25117626984569E-21   4.75229189277553E-18   0.00000000000000E+00   0.00000000000000E+00
      0.00000000000000E+00   0.00000000000000E+00   0.00000000000000E+00   0.00000000000000E+00   0.00000000000000E+00
      3.39855372708951E-18   0.00000000000000E+00   0.00000000000000E+00   0.00000000000000E+00   0.00000000000000E+00
      9.04249728491896E-21  -1.22872264632259E-33   9.04249728491773E-21  -1.21076144696671E-17   0.00000000000000E+00
      0.00000000000000E+00   0.00000000000000E+00   0.00000000000000E+00  -1.52936735547640E-20   6.22745245289823E-34
     -1.52936735547634E-20   3.95676884980200E-18
      1.00000000000000E-03
      0.00000000000000E+00   3.04192315042617E-11   0.00000000000000E+00   0.00000000000000E+00  -1.34424669849864E-10
      6.14964001284890E-34  -1.34424669849864E-10   4.75200388649508E-18   0.00000000000000E+00   0.00000000000000E+00
      0.00000000000000E+00   0.00000000000000E+00   0.00000000000000E+00   0.00000000000000E+00   0.00000000000000E+00
      3.38855362462006E-18   0.00000000000000E+00   0.00000000000000E+00   0.00000000000000E+00   0.00000000000000E+00
      1.94217897782280E-20  -1.21260604736410E-33   1.94217897782268E-20  -1.21072516963919E-17   8.60000000000000E-04
      8.59999969185902E-04   0.00000000000000E+00   0.00000000000000E+00   1.34424669830443E-10   5.97642046079210E-34
      1.34424669830443E-10   3.96669418527671E-18
      2.08666666666667E-03
      0.00000000000000E+00   6.15218342130719E-11   0.00000000000000E+00   0.00000000000000E+00  -2.71850882070041E-10
      5.75217341868598E-34  -2.71850882070041E-10   4.75169098991447E-18   0.00000000000000E+00   0.00000000000000E+00
      0.00000000000000E+00   0.00000000000000E+00   0.00000000000000E+00   0.00000000000000E+00   0.00000000000000E+00
      3.37768949276989E-18   0.00000000000000E+00   0.00000000000000E+00   0.00000000000000E+00   0.00000000000000E+00
      5.86410607009734E-16  -1.14049285543886E-33   5.86410607009734E-16  -1.21068638183117E-17   1.79453333333333E-03
      1.79453327101306E-03   0.00000000000000E+00   0.00000000000000E+00   2.71850295659434E-10   5.65275513570264E-34
      2.71850295659434E-10   3.97748333562736E-18
      3.28200000000000E-03
      0.00000000000000E+00   9.34229027028283E-11   0.00000000000000E+00   0.00000000000000E+00  -4.12780337655206E-10
      5.90282141940993E-34  -4.12780337655206E-10   4.75134688724047E-18   0.00000000000000E+00   0.00000000000000E+00
      0.00000000000000E+00   0.00000000000000E+00   0.00000000000000E+00   0.00000000000000E+00   0.00000000000000E+00
      3.36574208192382E-18   0.00000000000000E+00   0.00000000000000E+00   0.00000000000000E+00   0.00000000000000E+00
      7.34221917287218E-22  -1.11750010114331E-33   7.34221917286100E-22  -1.21064446765749E-17   2.82252000000000E-03
      2.82251990536502E-03   0.00000000000000E+00   0.00000000000000E+00   4.12780337654472E-10   5.27217959202312E-34
      4.12780337654472E-10   3.98935570741063E-18
      4.58889777777778E-03
      0.00000000000000E+00   1.25650055872855E-10   0.00000000000000E+00   0.00000000000000E+00  -5.55121949675505E-10
      6.46602221271946E-34  -5.55121949675505E-10   4.75097076690754E-18   0.00000000000000E+00   0.00000000000000E+00
      0.00000000000000E+00   0.00000000000000E+00   0.00000000000000E+00   0.00000000000000E+00   0.00000000000000E+00
      3.35268327386407E-18   0.00000000000000E+00   0.00000000000000E+00   0.00000000000000E+00   0.00000000000000E+00
     -2.69073665118718E-20  -1.13813536212015E-33  -2.69073665118729E-20  -1.21059953100716E-17   3.94645208888889E-03
      3.94645196160889E-03   0.00000000000000E+00   0.00000000000000E+00   5.55121949702412E-10   4.91533140848199E-34
      5.55121949702412E-10   4.00234126929994E-18
      6.01777268148148E-03
      0.00000000000000E+00   1.57899920934325E-10   0.00000000000000E+00   0.00000000000000E+00  -6.97532296776496E-10
      6.29547888776381E-34  -6.97532296776496E-10   4.75055965759428E-18   0.00000000000000E+00   0.00000000000000E+00
      0.00000000000000E+00   0.00000000000000E+00   0.00000000000000E+00   0.00000000000000E+00   0.00000000000000E+00
      3.33840997898850E-18   0.00000000000000E+00   0.00000000000000E+00   0.00000000000000E+00   0.00000000000000E+00
      1.24121466486797E-21  -1.11280649704229E-33   1.24121466486686E-21  -1.21055144743821E-17   5.17528450607408E-03
      5.17528434612600E-03   0.00000000000000E+00   0.00000000000000E+00   6.97532296775254E-10   4.83258608265911E-34
      6.97532296775254E-10   4.01654483779938E-18
      7.58000924286420E-03
      0.00000000000000E+00   1.89842550479735E-10   0.00000000000000E+00   0.00000000000000E+00  -8.38552232973785E-10
      6.09922397055318E-34  -8.38552232973785E-10   4.75011031318101E-18   0.00000000000000E+00   0.00000000000000E+00
      0.00000000000000E+00   0.00000000000000E+00   0.00000000000000E+00   0.00000000000000E+00   0.00000000000000E+00
      3.32280958861022E-18   0.00000000000000E+00   0.00000000000000E+00   0.00000000000000E+00   0.00000000000000E+00
      1.90560939983151E-20  -1.05037841536951E-33   1.90560939983141E-20  -1.21050010713078E-17   6.51880794886321E-03
      6.51880775655812E-03   0.00000000000000E+00   0.00000000000000E+00   8.38552232954729E-10   4.40456018314192E-34
      8.38552232954729E-10   4.03208116951659E-18
      9.28805454997597E-03
      0.00000000000000E+00   2.21125821408462E-10   0.00000000000000E+00   0.00000000000000E+00  -9.76626947786654E-10
      5.85142344890893E-34  -9.76626947786654E-10   4.74961918738452E-18   0.00000000000000E+00   0.00000000000000E+00
      0.00000000000000E+00   0.00000000000000E+00   0.00000000000000E+00   0.00000000000000E+00   0.00000000000000E+00
      3.30575909997023E-18   0.00000000000000E+00   0.00000000000000E+00   0.00000000000000E+00   0.00000000000000E+00
     -2.59480885357417E-20  -1.04178111361442E-33  -2.59480885357428E-20  -1.21044542004928E-17   7.98772691297934E-03
      7.98772668898508E-03   0.00000000000000E+00   0.00000000000000E+00   9.76626947812603E-10   4.56638768723525E-34
      9.76626947812603E-10   4.04907591313801E-18
      1.11555174190848E-02
      0.00000000000000E+00   2.51383693080703E-10   0.00000000000000E+00   0.00000000000000E+00  -1.11014256881181E-09
      6.13915580501572E-34  -1.11014256881181E-09   4.74908240603643E-18   0.00000000000000E+00   0.00000000000000E+00
      0.00000000000000E+00   0.00000000000000E+00   0.00000000000000E+00   0.00000000000000E+00   0.00000000000000E+00
      3.28712416086629E-18   0.00000000000000E+00   0.00000000000000E+00   0.00000000000000E+00   0.00000000000000E+00
      1.77043775167028E-20  -1.06650827178089E-33   1.77043775167017E-20  -1.21038732205142E-17   9.59374498041296E-03
      9.59374472576815E-03   0.00000000000000E+00   0.00000000000000E+00   1.11014256879411E-09   4.52592691279321E-34
      1.11014256879411E-09   4.06766665361147E-18
      1.31972768226439E-02
      0.00000000000000E+00   2.80247219064114E-10   0.00000000000000E+00   0.00000000000000E+00  -1.23747553423814E-09
      6.14120481470497E-34  -1.23747553423814E-09   4.74849573675803E-18   0.00000000000000E+00   0.00000000000000E+00
      0.00000000000000E+00   0.00000000000000E+00   0.00000000000000E+00   0.00000000000000E+00   0.00000000000000E+00
      3.26675802607843E-18   0.00000000000000E+00   0.00000000000000E+00   0.00000000000000E+00   0.00000000000000E+00
      6.85818071806844E-22  -1.02098746163813E-33   6.85818071805823E-22  -1.21032578195637E-17   1.13496580674737E-02
      1.13496577835906E-02   0.00000000000000E+00   0.00000000000000E+00   1.23747553423745E-09   4.06866980167632E-34
      1.23747553423745E-09   4.08800405672723E-18
      1.54296004372017E-02
      0.00000000000000E+00   3.07359319266395E-10   0.00000000000000E+00   0.00000000000000E+00  -1.35705813543606E-09
      5.93144171064427E-34  -1.35705813543606E-09   4.74785455577126E-18   0.00000000000000E+00   0.00000000000000E+00
      0.00000000000000E+00   0.00000000000000E+00   0.00000000000000E+00   0.00000000000000E+00   0.00000000000000E+00
      3.24450041687930E-18   0.00000000000000E+00   0.00000000000000E+00   0.00000000000000E+00   0.00000000000000E+00
     -2.11801377421669E-21  -9.66903752701206E-34  -2.11801377421765E-21  -1.21026080966979E-17   1.32694563759935E-02
      1.32694560646461E-02   0.00000000000000E+00   0.00000000000000E+00   1.35705813543818E-09   3.73759581636780E-34
      1.35705813543818E-09   4.11025312404738E-18
      1.78702742557850E-02
      0.00000000000000E+00   3.32392166581407E-10   0.00000000000000E+00   0.00000000000000E+00  -1.46745599642672E-09
      6.46529045078118E-34  -1.46745599642672E-09   4.74715381156863E-18   0.00000000000000E+00   0.00000000000000E+00
      0.00000000000000E+00   0.00000000000000E+00   0.00000000000000E+00   0.00000000000000E+00   0.00000000000000E+00
      3.22017627416352E-18   0.00000000000000E+00   0.00000000000000E+00   0.00000000000000E+00   0.00000000000000E+00
     -2.83686464924803E-20  -9.85138046568263E-34  -2.83686464924813E-20  -1.21019246540355E-17   1.53684358599751E-02
      1.53684355232692E-02   0.00000000000000E+00   0.00000000000000E+00   1.46745599645509E-09   3.38609001490144E-34
      1.46745599645509E-09   4.13459456830334E-18
      2.05387442974361E-02
      0.00000000000000E+00   3.55067343747489E-10   0.00000000000000E+00   0.00000000000000E+00  -1.56745688095703E-09
      5.90746373771962E-34  -1.56745688095703E-09   4.74638798512806E-18   0.00000000000000E+00   0.00000000000000E+00
      0.00000000000000E+00   0.00000000000000E+00   0.00000000000000E+00   0.00000000000000E+00   0.00000000000000E+00
      3.19359439439692E-18   0.00000000000000E+00   0.00000000000000E+00   0.00000000000000E+00   0.00000000000000E+00
     -3.81002503980991E-20  -9.16172440524549E-34  -3.81002503981000E-20  -1.21012086994545E-17   1.76633200957950E-02
      1.76633197361187E-02   0.00000000000000E+00   0.00000000000000E+00   1.56745688099513E-09   3.25426066752588E-34
      1.56745688099513E-09   4.16122631992947E-18
      2.34562715429746E-02
      0.00000000000000E+00   3.75177785492540E-10   0.00000000000000E+00   0.00000000000000E+00  -1.65616818160610E-09
      5.79002053582502E-34  -1.65616818160610E-09   4.74555104629525E-18   0.00000000000000E+00   0.00000000000000E+00
      0.00000000000000E+00   0.00000000000000E+00   0.00000000000000E+00   0.00000000000000E+00   0.00000000000000E+00
      3.16454593706888E-18   0.00000000000000E+00   0.00000000000000E+00   0.00000000000000E+00   0.00000000000000E+00
     -4.75286716275583E-21  -8.81803162588042E-34  -4.75286716275671E-21  -1.21004621610226E-17   2.01723935269581E-02
      2.01723931469098E-02   0.00000000000000E+00   0.00000000000000E+00   1.65616818161085E-09   3.02801109005539E-34
      1.65616818161085E-09   4.19036517765847E-18
      2.66461013314300E-02
      0.00000000000000E+00   3.92610409951974E-10   0.00000000000000E+00   0.00000000000000E+00  -1.73311641639550E-09
      6.05530567474307E-34  -1.73311641639550E-09   4.74463640598245E-18   0.00000000000000E+00   0.00000000000000E+00
      0.00000000000000E+00   0.00000000000000E+00   0.00000000000000E+00   0.00000000000000E+00   0.00000000000000E+00
      3.13280279047055E-18   0.00000000000000E+00   0.00000000000000E+00   0.00000000000000E+00   0.00000000000000E+00
     -7.50861909835787E-21  -8.71421314219237E-34  -7.50861909835874E-21  -1.20996878117718E-17   2.29156471450298E-02
      2.29156467473231E-02   0.00000000000000E+00   0.00000000000000E+00   1.73311641640301E-09   2.65890746744929E-34
      1.73311641640301E-09   4.22224861531882E-18
      3.01336485668079E-02
      0.00000000000000E+00   4.07368389705428E-10   0.00000000000000E+00   0.00000000000000E+00  -1.79834463993505E-09
      6.07633222852349E-34  -1.79834463993505E-09   4.74363686370050E-18   0.00000000000000E+00   0.00000000000000E+00
      0.00000000000000E+00   0.00000000000000E+00   0.00000000000000E+00   0.00000000000000E+00   0.00000000000000E+00
      3.09811577717249E-18   0.00000000000000E+00   0.00000000000000E+00   0.00000000000000E+00   0.00000000000000E+00
     -6.74426675560392E-20  -8.55316324142548E-34  -6.74426675560401E-20  -1.20988893989774E-17   2.59149377674548E-02
      2.59149373548004E-02   0.00000000000000E+00   0.00000000000000E+00   1.79834464000250E-09   2.47683101290199E-34
      1.79834464000250E-09   4.25713675810436E-18
      3.39467002108211E-02
      0.00000000000000E+00   4.19587581488180E-10   0.00000000000000E+00   0.00000000000000E+00  -1.85248422226385E-09
      6.10120752252345E-34  -1.85248422226385E-09   4.74254455007133E-18   0.00000000000000E+00   0.00000000000000E+00
      0.00000000000000E+00   0.00000000000000E+00   0.00000000000000E+00   0.00000000000000E+00   0.00000000000000E+00
      3.06021269031574E-18   0.00000000000000E+00   0.00000000000000E+00   0.00000000000000E+00   0.00000000000000E+00
     -3.36914562942632E-20  -8.25257620936095E-34  -3.36914562942641E-20  -1.20980717847795E-17   2.91941621813061E-02
      2.91941617562789E-02   0.00000000000000E+00   0.00000000000000E+00   1.85248422229754E-09   2.15136868683750E-34
      1.85248422229754E-09   4.29531454439244E-18
      3.81156366749421E-02
      0.00000000000000E+00   4.29545092243637E-10   0.00000000000000E+00   0.00000000000000E+00  -1.89679041979298E-09
      5.99177973463487E-34  -1.89679041979298E-09   4.74135086385772E-18   0.00000000000000E+00   0.00000000000000E+00
      0.00000000000000E+00   0.00000000000000E+00   0.00000000000000E+00   0.00000000000000E+00   0.00000000000000E+00
      3.01879613612515E-18   0.00000000000000E+00   0.00000000000000E+00   0.00000000000000E+00   0.00000000000000E+00
      3.24043200953689E-21  -7.92611682053817E-34   3.24043200953610E-21  -1.20972410879873E-17   3.27794475404502E-02
      3.27794471053460E-02   0.00000000000000E+00   0.00000000000000E+00   1.89679041978974E-09   1.93433708590330E-34
      1.89679041978974E-09   4.33709408800443E-18
      4.26736738757145E-02
      0.00000000000000E+00   4.37652363651984E-10   0.00000000000000E+00   0.00000000000000E+00  -1.93310823095750E-09
      6.10197841926583E-34  -1.93310823095750E-09   4.74004640304644E-18   0.00000000000000E+00   0.00000000000000E+00
      0.00000000000000E+00   0.00000000000000E+00   0.00000000000000E+00   0.00000000000000E+00   0.00000000000000E+00
      2.97354116238780E-18   0.00000000000000E+00   0.00000000000000E+00   0.00000000000000E+00   0.00000000000000E+00
      2.41270100230136E-20  -7.78076380608850E-34   2.41270100230128E-20  -1.20964048211299E-17   3.66993595331145E-02
      3.66993590898141E-02   0.00000000000000E+00   0.00000000000000E+00   1.93310823093338E-09   1.67878538682266E-34
      1.93310823093338E-09   4.38281725569560E-18
      4.76571278818923E-02
      0.00000000000000E+00   4.44426499952645E-10   0.00000000000000E+00   0.00000000000000E+00  -1.96374124191034E-09
      6.46576885934173E-34  -1.96374124191034E-09   4.73862088969575E-18   0.00000000000000E+00   0.00000000000000E+00
      0.00000000000000E+00   0.00000000000000E+00   0.00000000000000E+00   0.00000000000000E+00   0.00000000000000E+00
      2.92409265637565E-18   0.00000000000000E+00   0.00000000000000E+00   0.00000000000000E+00   0.00000000000000E+00
      1.53054354718467E-19  -7.92061207594833E-34   1.53054354718466E-19  -1.20955720255235E-17   4.09851299784274E-02
      4.09851295282914E-02   0.00000000000000E+00   0.00000000000000E+00   1.96374124175729E-09   1.45484321660661E-34
      1.96374124175729E-09   4.43285847945212E-18
      5.31057042619801E-02
      0.00000000000000E+00   4.50440946445698E-10   0.00000000000000E+00   0.00000000000000E+00  -1.99123258982472E-09
      5.75847221026456E-34  -1.99123258982472E-09   4.73706308827038E-18   0.00000000000000E+00   0.00000000000000E+00
      0.00000000000000E+00   0.00000000000000E+00   0.00000000000000E+00   0.00000000000000E+00   0.00000000000000E+00
      2.87006249789823E-18   0.00000000000000E+00   0.00000000000000E+00   0.00000000000000E+00   0.00000000000000E+00
      2.86568464466056E-19  -7.05586761346044E-34   2.86568464466055E-19  -1.20947534099800E-17   4.56709056653029E-02
      4.56709052091137E-02   0.00000000000000E+00   0.00000000000000E+00   1.99123258953815E-09   1.29739540319588E-34
      1.99123258953815E-09   4.48762782381144E-18
      5.90628144375427E-02
      0.00000000000000E+00   4.56259742655415E-10   0.00000000000000E+00   0.00000000000000E+00  -2.01807944099898E-09
      6.23126538683621E-34  -2.01807944099898E-09   4.73536071743132E-18   0.00000000000000E+00   0.00000000000000E+00
      0.00000000000000E+00   0.00000000000000E+00   0.00000000000000E+00   0.00000000000000E+00   0.00000000000000E+00
      2.81102644447325E-18   0.00000000000000E+00   0.00000000000000E+00   0.00000000000000E+00   0.00000000000000E+00
     -2.20017593922367E-20  -7.29996328055992E-34  -2.20017593922374E-20  -1.20939614834669E-17   5.07940204162867E-02
      5.07940199542595E-02   0.00000000000000E+00   0.00000000000000E+00   2.01807944102098E-09   1.06869789372371E-34
      2.01807944102098E-09   4.54757432156236E-18
      6.55362074949873E-02
      0.00000000000000E+00   4.62312746443859E-10   0.00000000000000E+00   0.00000000000000E+00  -2.04616869306979E-09
      6.10521623962253E-34  -2.04616869306979E-09   4.73351169681545E-18   0.00000000000000E+00   0.00000000000000E+00
      0.00000000000000E+00   0.00000000000000E+00   0.00000000000000E+00   0.00000000000000E+00   0.00000000000000E+00
      2.74691396328827E-18   0.00000000000000E+00   0.00000000000000E+00   0.00000000000000E+00   0.00000000000000E+00
     -2.48752424106594E-20  -6.98388577786562E-34  -2.48752424106601E-20  -1.20932149528567E-17   5.63611384456891E-02
      5.63611379776047E-02   0.00000000000000E+00   0.00000000000000E+00   2.04616869309466E-09   8.78669538243090E-35
      2.04616869309466E-09   4.61278929275297E-18
      7.25706279507439E-02
      0.00000000000000E+00   4.68886592989889E-10   0.00000000000000E+00   0.00000000000000E+00  -2.07674516986454E-09
      6.00720734149935E-34  -2.07674516986454E-09   4.73150338563560E-18   0.00000000000000E+00   0.00000000000000E+00
      0.00000000000000E+00   0.00000000000000E+00   0.00000000000000E+00   0.00000000000000E+00   0.00000000000000E+00
      2.67728813475584E-18   0.00000000000000E+00   0.00000000000000E+00   0.00000000000000E+00   0.00000000000000E+00
     -3.38376695513172E-20  -6.70820487240358E-34  -3.38376695513179E-20  -1.20925289148877E-17   6.24107400376398E-02
      6.24107395629903E-02   0.00000000000000E+00   0.00000000000000E+00   2.07674516989838E-09   7.00997530904230E-35
      2.07674516989838E-09   4.68373739449624E-18
      8.02146981793327E-02
      0.00000000000000E+00   4.76123326739935E-10   0.00000000000000E+00   0.00000000000000E+00  -2.11042870712226E-09
      6.16574518615182E-34  -2.11042870712226E-09   4.72932205346925E-18   0.00000000000000E+00   0.00000000000000E+00
      0.00000000000000E+00   0.00000000000000E+00   0.00000000000000E+00   0.00000000000000E+00   0.00000000000000E+00
      2.60167418271336E-18   0.00000000000000E+00   0.00000000000000E+00   0.00000000000000E+00   0.00000000000000E+00
     -1.92233556669623E-21  -6.73730652126174E-34  -1.92233556669690E-21  -1.20919202284645E-17   6.89846404342261E-02
      6.89846399523615E-02   0.00000000000000E+00   0.00000000000000E+00   2.11042870712418E-09   5.71561335109910E-35
      2.11042870712418E-09   4.76092399228187E-18
      8.85212544943992E-02
      0.00000000000000E+00   4.84110934077529E-10   0.00000000000000E+00   0.00000000000000E+00  -2.14762914924485E-09
      5.72816425929061E-34  -2.14762914924485E-09   4.72695278559291E-18   0.00000000000000E+00   0.00000000000000E+00
      0.00000000000000E+00   0.00000000000000E+00   0.00000000000000E+00   0.00000000000000E+00   0.00000000000000E+00
      2.51955621277921E-18   0.00000000000000E+00   0.00000000000000E+00   0.00000000000000E+00   0.00000000000000E+00
     -1.83846795392782E-20  -6.19119653240857E-34  -1.83846795392788E-20  -1.20914076205893E-17   7.61282788651833E-02
      7.61282783753662E-02   0.00000000000000E+00   0.00000000000000E+00   2.14762914926323E-09   4.63032273117957E-35
      2.14762914926323E-09   4.84489862221714E-18
      9.75477123567714E-02
      0.00000000000000E+00   4.92896338916268E-10   0.00000000000000E+00   0.00000000000000E+00  -2.18857679668591E-09
      5.95383837986803E-34  -2.18857679668591E-09   4.72437938744311E-18   0.00000000000000E+00   0.00000000000000E+00
      0.00000000000000E+00   0.00000000000000E+00   0.00000000000000E+00   0.00000000000000E+00   0.00000000000000E+00
      2.43037371069279E-18   0.00000000000000E+00   0.00000000000000E+00   0.00000000000000E+00   0.00000000000000E+00
     -1.08139801063687E-20  -6.28517955408544E-34  -1.08139801063693E-20  -1.20910118239774E-17   8.38910326268234E-02
      8.38910321282626E-02   0.00000000000000E+00   0.00000000000000E+00   2.18857679669673E-09   3.31341174217418E-35
      2.18857679669673E-09   4.93625872584151E-18
      1.07356463233883E-01
      0.00000000000000E+00   5.02506974841799E-10   0.00000000000000E+00   0.00000000000000E+00  -2.23342221192746E-09
      5.68545270427676E-34  -2.23342221192746E-09   4.72158427241126E-18   0.00000000000000E+00   0.00000000000000E+00
      0.00000000000000E+00   0.00000000000000E+00   0.00000000000000E+00   0.00000000000000E+00   0.00000000000000E+00
      2.33351764411606E-18   0.00000000000000E+00   0.00000000000000E+00   0.00000000000000E+00   0.00000000000000E+00
     -2.27229044686734E-20  -5.94565496244496E-34  -2.27229044686740E-20  -1.20907555853624E-17   9.23265583811390E-02
      9.23265578730131E-02   0.00000000000000E+00   0.00000000000000E+00   2.23342221195019E-09   2.60202258168200E-35
      2.23342221195019E-09   5.03565366883507E-18
      1.17356463233883E-01
      0.00000000000000E+00   5.12365003751472E-10   0.00000000000000E+00   0.00000000000000E+00  -2.27949184721161E-09
      6.01161592728633E-34  -2.27949184721161E-09   4.71873594562469E-18   0.00000000000000E+00   0.00000000000000E+00
      0.00000000000000E+00   0.00000000000000E+00   0.00000000000000E+00   0.00000000000000E+00   0.00000000000000E+00
      2.23482648596447E-18   0.00000000000000E+00   0.00000000000000E+00   0.00000000000000E+00   0.00000000000000E+00
      2.39082915716495E-21  -6.20060787518287E-34   2.39082915716433E-21  -1.20906638570621E-17   1.00926558381139E-01
      1.00926557863212E-01   0.00000000000000E+00   0.00000000000000E+00   2.27949184720922E-09   1.88991947896536E-35
      2.27949184720922E-09   5.13710142547297E-18
      1.27356463233883E-01
      0.00000000000000E+00   5.22309939650339E-10   0.00000000000000E+00   0.00000000000000E+00  -2.32604003474189E-09
      6.50891151030787E-34  -2.32604003474189E-09   4.71588880362171E-18   0.00000000000000E+00   0.00000000000000E+00
      0.00000000000000E+00   0.00000000000000E+00   0.00000000000000E+00   0.00000000000000E+00   0.00000000000000E+00
      2.13618352841843E-18   0.00000000000000E+00   0.00000000000000E+00   0.00000000000000E+00   0.00000000000000E+00
     -6.59489808978204E-22  -6.65073570094850E-34  -6.59489808978869E-22  -1.20907274134637E-17   1.09526558381139E-01
      1.09526557853341E-01   0.00000000000000E+00   0.00000000000000E+00   2.32604003474255E-09   1.41824190640628E-35
      2.32604003474255E-09   5.23865508142354E-18
      1.37356463233883E-01
      0.00000000000000E+00   5.32366316454485E-10   0.00000000000000E+00   0.00000000000000E+00  -2.37317630099697E-09
      6.31948557620381E-34  -2.37317630099697E-09   4.71304274792721E-18   0.00000000000000E+00   0.00000000000000E+00
      0.00000000000000E+00   0.00000000000000E+00   0.00000000000000E+00   0.00000000000000E+00   0.00000000000000E+00
      2.03758381000818E-18   0.00000000000000E+00   0.00000000000000E+00   0.00000000000000E+00   0.00000000000000E+00
      1.39223216237207E-20  -6.42884856901592E-34   1.39223216237201E-20  -1.20909320327665E-17   1.18126558381139E-01
      1.18126557843370E-01   0.00000000000000E+00   0.00000000000000E+00   2.37317630098304E-09   1.09362992812108E-35
      2.37317630098304E-09   5.34030547483110E-18
      1.47356463233883E-01
      0.00000000000000E+00   5.42546921575467E-10   0.00000000000000E+00   0.00000000000000E+00  -2.42095671325934E-09
      5.91967496799922E-34  -2.42095671325934E-09   4.71019769725426E-18   0.00000000000000E+00   0.00000000000000E+00
      0.00000000000000E+00   0.00000000000000E+00   0.00000000000000E+00   0.00000000000000E+00   0.00000000000000E+00
      1.93902309715803E-18   0.00000000000000E+00   0.00000000000000E+00   0.00000000000000E+00   0.00000000000000E+00
     -1.59136171822908E-20  -6.00138963388651E-34  -1.59136171822914E-20  -1.20912650985744E-17   1.26726558381139E-01
      1.26726557833271E-01   0.00000000000000E+00   0.00000000000000E+00   2.42095671327525E-09   8.17146658872958E-36
      2.42095671327525E-09   5.44204430416209E-18
      1.57356463233883E-01
      0.00000000000000E+00   5.52855397313148E-10   0.00000000000000E+00   0.00000000000000E+00  -2.46939672124105E-09
      6.22161070233794E-34  -2.46939672124105E-09   4.70735358098767E-18   0.00000000000000E+00   0.00000000000000E+00
      0.00000000000000E+00   0.00000000000000E+00   0.00000000000000E+00   0.00000000000000E+00   0.00000000000000E+00
      1.84049772023304E-18   0.00000000000000E+00   0.00000000000000E+00   0.00000000000000E+00   0.00000000000000E+00
     -1.34774103269392E-20  -6.28277184987636E-34  -1.34774103269398E-20  -1.20917153258946E-17   1.35326558381139E-01
      1.35326557823031E-01   0.00000000000000E+00   0.00000000000000E+00   2.46939672125452E-09   6.11611475384178E-36
      2.46939672125452E-09   5.54386402467388E-18
      1.67356463233883E-01
      0.00000000000000E+00   5.63290565430756E-10   0.00000000000000E+00   0.00000000000000E+00  -2.51848961959262E-09
      5.75895601664425E-34  -2.51848961959262E-09   4.70451033515709E-18   0.00000000000000E+00   0.00000000000000E+00
      0.00000000000000E+00   0.00000000000000E+00   0.00000000000000E+00   0.00000000000000E+00   0.00000000000000E+00
      1.74200443242274E-18   0.00000000000000E+00   0.00000000000000E+00   0.00000000000000E+00   0.00000000000000E+00
      2.15777004939665E-21  -5.80525432870754E-34   2.15777004939607E-21  -1.20922725294546E-17   1.43926558381139E-01
      1.43926557812655E-01   0.00000000000000E+00   0.00000000000000E+00   2.51848961959046E-09   4.62983120632907E-36
      2.51848961959046E-09   5.64575776187479E-18
      1.77356463233883E-01
      0.00000000000000E+00   5.73850065081190E-10   0.00000000000000E+00   0.00000000000000E+00  -2.56822401604662E-09
      5.93717629360446E-34  -2.56822401604662E-09   4.70166790128946E-18   0.00000000000000E+00   0.00000000000000E+00
      0.00000000000000E+00   0.00000000000000E+00   0.00000000000000E+00   0.00000000000000E+00   0.00000000000000E+00
      1.64354034523399E-18   0.00000000000000E+00   0.00000000000000E+00   0.00000000000000E+00   0.00000000000000E+00
     -1.36100589429333E-21  -5.97251552590385E-34  -1.36100589429393E-21  -1.20929274927557E-17   1.52526558381139E-01
      1.52526557802150E-01   0.00000000000000E+00   0.00000000000000E+00   2.56822401604798E-09   3.53392322993837E-36
      2.56822401604798E-09   5.74771924623229E-18
      1.87356463233883E-01
      0.00000000000000E+00   5.84531379718650E-10   0.00000000000000E+00   0.00000000000000E+00  -2.61858909252300E-09