DF-ISE text

Info {
  version   = 1.0
  type      = xyplot
  datasets  = [
    "time"
    "source OuterVoltage" "source InnerVoltage" "source QuasiFermiPotential" "source DisplacementCurrent" "source eCurrent"
    "source hCurrent" "source TotalCurrent" "source Charge" "gate OuterVoltage" "gate InnerVoltage"
    "gate QuasiFermiPotential" "gate DisplacementCurrent" "gate eCurrent" "gate hCurrent" "gate TotalCurrent"
    "gate Charge" "substrate OuterVoltage" "substrate InnerVoltage" "substrate QuasiFermiPotential" "substrate DisplacementCurrent"
    "substrate eCurrent" "substrate hCurrent" "substrate TotalCurrent" "substrate Charge" "drain OuterVoltage"
    "drain InnerVoltage" "drain QuasiFermiPotential" "drain DisplacementCurrent" "drain eCurrent" "drain hCurrent"
    "drain TotalCurrent" "drain Charge" ]
  functions = [
    Time
    OuterVoltage InnerVoltage QuasiFermiPotential DisplacementCurrent eCurrent
    hCurrent TotalCurrent Charge OuterVoltage InnerVoltage
    QuasiFermiPotential DisplacementCurrent eCurrent hCurrent TotalCurrent
    Charge OuterVoltage InnerVoltage QuasiFermiPotential DisplacementCurrent
    eCurrent hCurrent TotalCurrent Charge OuterVoltage
    InnerVoltage QuasiFermiPotential DisplacementCurrent eCurrent hCurrent
    TotalCurrent Charge ]
}

Data {
      0.00000000000000E+00
      0.00000000000000E+00   0.00000000000000E+00   0.00000000000000E+00   0.00000000000000E+00  -1.40359587745905E-22
     -1.17831174948709E-34  -1.40359587746023E-22   4.56323783425143E-18   0.00000000000000E+00   0.00000000000000E+00
      0.00000000000000E+00   0.00000000000000E+00   0.00000000000000E+00   0.00000000000000E+00   0.00000000000000E+00
      3.63771017855098E-18   0.00000000000000E+00   0.00000000000000E+00   0.00000000000000E+00   0.00000000000000E+00
      1.00312201397908E-21   2.76114011502702E-34   1.00312201397935E-21  -1.18919495905562E-17   0.00000000000000E+00
      0.00000000000000E+00   0.00000000000000E+00   0.00000000000000E+00  -8.62762426233171E-22  -1.58282836553992E-34
     -8.62762426233329E-22   3.69100157775382E-18
      0.00000000000000E+00
      0.00000000000000E+00   0.00000000000000E+00   0.00000000000000E+00   0.00000000000000E+00  -1.29625268004370E-20
     -1.41619049288571E-34  -1.29625268004372E-20   4.56160220324173E-18   0.00000000000000E+00   0.00000000000000E+00
      0.00000000000000E+00   0.00000000000000E+00   0.00000000000000E+00   0.00000000000000E+00   0.00000000000000E+00
      3.63185901853033E-18   0.00000000000000E+00   0.00000000000000E+00   0.00000000000000E+00   0.00000000000000E+00
      1.45239033690333E-20   2.83441436704762E-34   1.45239033690336E-20  -1.18833162362301E-17   0.00000000000000E+00
      0.00000000000000E+00   0.00000000000000E+00   0.00000000000000E+00  -1.56137656859626E-21  -1.41822387416190E-34
     -1.56137656859641E-21   3.68985501445804E-18
      1.00000000000000E-03
      0.00000000000000E+00   2.57842702875760E-11   0.00000000000000E+00   0.00000000000000E+00  -1.10303157557353E-10
     -1.45578638284332E-34  -1.10303157557353E-10   4.56137157625265E-18   0.00000000000000E+00   0.00000000000000E+00
      0.00000000000000E+00   0.00000000000000E+00   0.00000000000000E+00   0.00000000000000E+00   0.00000000000000E+00
      3.62252778183885E-18   0.00000000000000E+00   0.00000000000000E+00   0.00000000000000E+00   0.00000000000000E+00
      1.08228325639195E-20   2.98551932994638E-34   1.08228325639198E-20  -1.18830565483310E-17   8.60000000000000E-04
      8.59999974013205E-04   0.00000000000000E+00   0.00000000000000E+00   1.10303157546530E-10  -1.52973294710307E-34
      1.10303157546530E-10   3.69915719023948E-18
      2.08666666666667E-03
      0.00000000000000E+00   5.21941147200275E-11   0.00000000000000E+00   0.00000000000000E+00  -2.23275483736126E-10
     -1.07014883642201E-34  -2.23275483736126E-10   4.56112100830855E-18   0.00000000000000E+00   0.00000000000000E+00
      0.00000000000000E+00   0.00000000000000E+00   0.00000000000000E+00   0.00000000000000E+00   0.00000000000000E+00
      3.61239026598478E-18   0.00000000000000E+00   0.00000000000000E+00   0.00000000000000E+00   0.00000000000000E+00
      4.22956124966530E-16   2.48122942056845E-34   4.22956124966530E-16  -1.18827798080972E-17   1.79453333333333E-03
      1.79453328072925E-03   0.00000000000000E+00   0.00000000000000E+00   2.23275060780001E-10  -1.41108058414644E-34
      2.23275060780001E-10   3.70926853380387E-18
      3.28200000000000E-03
      0.00000000000000E+00   7.93406342368235E-11   0.00000000000000E+00   0.00000000000000E+00  -3.39389424284222E-10
     -1.27284118034014E-34  -3.39389424284222E-10   4.56084543909888E-18   0.00000000000000E+00   0.00000000000000E+00
      0.00000000000000E+00   0.00000000000000E+00   0.00000000000000E+00   0.00000000000000E+00   0.00000000000000E+00
      3.60124187134952E-18   0.00000000000000E+00   0.00000000000000E+00   0.00000000000000E+00   0.00000000000000E+00
      5.82067401844252E-16   2.76246728255676E-34   5.82067401844252E-16  -1.18824818644336E-17   2.82252000000000E-03
      2.82251992003626E-03   0.00000000000000E+00   0.00000000000000E+00   3.39388842216821E-10  -1.48962610221662E-34
      3.39388842216821E-10   3.72039455398518E-18
      4.59686666666667E-03
      0.00000000000000E+00   1.06993809758846E-10   0.00000000000000E+00   0.00000000000000E+00  -4.57659118226473E-10
     -1.27671460143599E-34  -4.57659118226473E-10   4.56054237907099E-18   0.00000000000000E+00   0.00000000000000E+00
      0.00000000000000E+00   0.00000000000000E+00   0.00000000000000E+00   0.00000000000000E+00   0.00000000000000E+00
      3.58898205107792E-18   0.00000000000000E+00   0.00000000000000E+00   0.00000000000000E+00   0.00000000000000E+00
      2.42212592744327E-20   2.67622998481149E-34   2.42212592744330E-20  -1.18821618384209E-17   3.95330533333333E-03
      3.95330522549937E-03   0.00000000000000E+00   0.00000000000000E+00   4.57659118202252E-10  -1.39951538337550E-34
      4.57659118202252E-10   3.73263740827192E-18
      6.03445422222222E-03
      0.00000000000000E+00   1.34730550128371E-10   0.00000000000000E+00   0.00000000000000E+00  -5.76273717596753E-10
     -1.34200658145992E-34  -5.76273717596753E-10   4.56021111116389E-18   0.00000000000000E+00   0.00000000000000E+00
      0.00000000000000E+00   0.00000000000000E+00   0.00000000000000E+00   0.00000000000000E+00   0.00000000000000E+00
      3.57558199302714E-18   0.00000000000000E+00   0.00000000000000E+00   0.00000000000000E+00   0.00000000000000E+00
     -7.80806100549843E-21   2.65320175953989E-34  -7.80806100549816E-21  -1.18818210367629E-17   5.18963063111111E-03
      5.18963049532257E-03   0.00000000000000E+00   0.00000000000000E+00   5.76273717604560E-10  -1.31119517807997E-34
      5.76273717604560E-10   3.74602793257182E-18
      7.60621661629630E-03
      0.00000000000000E+00   1.62273990829186E-10   0.00000000000000E+00   0.00000000000000E+00  -6.94047974037481E-10
     -1.42846380348437E-34  -6.94047974037481E-10   4.55984901576251E-18   0.00000000000000E+00   0.00000000000000E+00
      0.00000000000000E+00   0.00000000000000E+00   0.00000000000000E+00   0.00000000000000E+00   0.00000000000000E+00
      3.56093595579715E-18   0.00000000000000E+00   0.00000000000000E+00   0.00000000000000E+00   0.00000000000000E+00
     -3.54101253389821E-20   2.70318696808351E-34  -3.54101253389818E-20  -1.18814591018401E-17   6.54134629001482E-03
      6.54134612646640E-03   0.00000000000000E+00   0.00000000000000E+00   6.94047974072891E-10  -1.27472316459914E-34
      6.94047974072891E-10   3.76067413028047E-18
      9.32467683381729E-03
      0.00000000000000E+00   1.89326026949909E-10   0.00000000000000E+00   0.00000000000000E+00  -8.09706750857492E-10
     -1.44091359628366E-34  -8.09706750857492E-10   4.55945323064623E-18   0.00000000000000E+00   0.00000000000000E+00
      0.00000000000000E+00   0.00000000000000E+00   0.00000000000000E+00   0.00000000000000E+00   0.00000000000000E+00
      3.54492843324871E-18   0.00000000000000E+00   0.00000000000000E+00   0.00000000000000E+00   0.00000000000000E+00
      2.29533328040544E-21   2.68889429508713E-34   2.29533328040571E-21  -1.18810758968552E-17   8.01922207708287E-03
      8.01922188626968E-03   0.00000000000000E+00   0.00000000000000E+00   8.09706750855197E-10  -1.24798069880348E-34
      8.09706750855197E-10   3.77669423296030E-18
      1.12035266716402E-02
      0.00000000000000E+00   2.15573332768937E-10   0.00000000000000E+00   0.00000000000000E+00  -9.21910710043911E-10
     -1.43630796273090E-34  -9.21910710043911E-10   4.55902062852889E-18   0.00000000000000E+00   0.00000000000000E+00
      0.00000000000000E+00   0.00000000000000E+00   0.00000000000000E+00   0.00000000000000E+00   0.00000000000000E+00
      3.52743325586725E-18   0.00000000000000E+00   0.00000000000000E+00   0.00000000000000E+00   0.00000000000000E+00
      6.39038098711937E-21   2.61390419603415E-34   6.39038098711963E-21  -1.18806715611460E-17   9.63503293761060E-03
      9.63503272034348E-03   0.00000000000000E+00   0.00000000000000E+00   9.21910710037521E-10  -1.17759623330325E-34
      9.21910710037521E-10   3.79421767674985E-18
      1.32577358276600E-02
      0.00000000000000E+00   2.40696254520035E-10   0.00000000000000E+00   0.00000000000000E+00  -1.02929454640382E-09
     -1.31691626370126E-34  -1.02929454640382E-09   4.55854779249265E-18   0.00000000000000E+00   0.00000000000000E+00
      0.00000000000000E+00   0.00000000000000E+00   0.00000000000000E+00   0.00000000000000E+00   0.00000000000000E+00
      3.50831260897264E-18   0.00000000000000E+00   0.00000000000000E+00   0.00000000000000E+00   0.00000000000000E+00
     -1.35885528698165E-20   2.27267200083103E-34  -1.35885528698163E-20  -1.18802465738382E-17   1.14016528117876E-02
      1.14016525691995E-02   0.00000000000000E+00   0.00000000000000E+00   1.02929454641741E-09  -9.55755737129778E-35
      1.02929454641741E-09   3.81338617237297E-18
      1.55036711715749E-02
      0.00000000000000E+00   2.64380416332340E-10   0.00000000000000E+00   0.00000000000000E+00  -1.13051682329387E-09
     -1.29107123789471E-34  -1.13051682329387E-09   4.55803098910079E-18   0.00000000000000E+00   0.00000000000000E+00
      0.00000000000000E+00   0.00000000000000E+00   0.00000000000000E+00   0.00000000000000E+00   0.00000000000000E+00
      3.48741595972856E-18   0.00000000000000E+00   0.00000000000000E+00   0.00000000000000E+00   0.00000000000000E+00
     -7.76302532558207E-21   2.29378678783191E-34  -7.76302532558184E-21  -1.18798018263115E-17   1.33331572075544E-02
      1.33331569410951E-02   0.00000000000000E+00   0.00000000000000E+00   1.13051682330164E-09  -1.00271554993720E-34
      1.13051682330164E-09   3.83435487748214E-18
      1.79592271475886E-02
      0.00000000000000E+00   2.86331638934937E-10   0.00000000000000E+00   0.00000000000000E+00  -1.22432412655244E-09
     -1.31122995306038E-34  -1.22432412655244E-09   4.55746613894029E-18   0.00000000000000E+00   0.00000000000000E+00
      0.00000000000000E+00   0.00000000000000E+00   0.00000000000000E+00   0.00000000000000E+00   0.00000000000000E+00
      3.46457888198161E-18   0.00000000000000E+00   0.00000000000000E+00   0.00000000000000E+00   0.00000000000000E+00
      3.53264956209061E-21   2.20851350732485E-34   3.53264956209083E-21  -1.18793387011354E-17   1.54449353469262E-02
      1.54449350583420E-02   0.00000000000000E+00   0.00000000000000E+00   1.22432412654891E-09  -8.97283554264474E-35
      1.22432412654891E-09   3.85729368021347E-18
      2.06439683480302E-02
      0.00000000000000E+00   3.06292247007651E-10   0.00000000000000E+00   0.00000000000000E+00  -1.30962057118794E-09
     -1.18472923247743E-34  -1.30962057118794E-09   4.55684878439353E-18   0.00000000000000E+00   0.00000000000000E+00
      0.00000000000000E+00   0.00000000000000E+00   0.00000000000000E+00   0.00000000000000E+00   0.00000000000000E+00
      3.43962177349697E-18   0.00000000000000E+00   0.00000000000000E+00   0.00000000000000E+00   0.00000000000000E+00
     -3.16820721662852E-21   2.09931061448065E-34  -3.16820721662831E-21  -1.18788591635581E-17   1.77538127793060E-02
      1.77538124706029E-02   0.00000000000000E+00   0.00000000000000E+00   1.30962057119111E-09  -9.14581382003215E-35
      1.30962057119111E-09   3.88238860566761E-18
      2.35792853938464E-02
      0.00000000000000E+00   3.24059777203086E-10   0.00000000000000E+00   0.00000000000000E+00  -1.38554816645593E-09
     -1.33096790632754E-34  -1.38554816645593E-09   4.55617405429339E-18   0.00000000000000E+00   0.00000000000000E+00
      0.00000000000000E+00   0.00000000000000E+00   0.00000000000000E+00   0.00000000000000E+00   0.00000000000000E+00
      3.41234845005177E-18   0.00000000000000E+00   0.00000000000000E+00   0.00000000000000E+00   0.00000000000000E+00
      7.99065053994357E-21   2.17010923166936E-34   7.99065053994379E-21  -1.18783658592042E-17   2.02781854387079E-02
      2.02781851120961E-02   0.00000000000000E+00   0.00000000000000E+00   1.38554816644794E-09  -8.39141325341822E-35
      1.38554816644794E-09   3.90984335485906E-18
      2.67885653639387E-02
      0.00000000000000E+00   3.39506665268219E-10   0.00000000000000E+00   0.00000000000000E+00  -1.45157089181756E-09
     -1.34736038961176E-34  -1.45157089181756E-09   4.55543662517513E-18   0.00000000000000E+00   0.00000000000000E+00
      0.00000000000000E+00   0.00000000000000E+00   0.00000000000000E+00   0.00000000000000E+00   0.00000000000000E+00
      3.38254460553058E-18   0.00000000000000E+00   0.00000000000000E+00   0.00000000000000E+00   0.00000000000000E+00
     -3.54010279208914E-20   2.06690700546581E-34  -3.54010279208912E-20  -1.18778622192393E-17   2.30381662129873E-02
      2.30381658708058E-02   0.00000000000000E+00   0.00000000000000E+00   1.45157089185296E-09  -7.19546615854051E-35
      1.45157089185296E-09   3.93988098853363E-18
      3.02973781312396E-02
      0.00000000000000E+00   3.52599175880141E-10   0.00000000000000E+00   0.00000000000000E+00  -1.50755537866162E-09
     -1.45449420233009E-34  -1.50755537866162E-09   4.55463067877856E-18   0.00000000000000E+00   0.00000000000000E+00
      0.00000000000000E+00   0.00000000000000E+00   0.00000000000000E+00   0.00000000000000E+00   0.00000000000000E+00
      3.34997612371378E-18   0.00000000000000E+00   0.00000000000000E+00   0.00000000000000E+00   0.00000000000000E+00
     -2.37779379607589E-20   2.10308319151673E-34  -2.37779379607587E-20  -1.18773525708535E-17   2.60557451928661E-02
      2.60557448374885E-02   0.00000000000000E+00   0.00000000000000E+00   1.50755537868540E-09  -6.48588989186640E-35
      1.50755537868540E-09   3.97274576836113E-18
      3.41336800901553E-02
      0.00000000000000E+00   3.63415073804554E-10   0.00000000000000E+00   0.00000000000000E+00  -1.55384576549978E-09
     -1.46266004963991E-34  -1.55384576549978E-09   4.55374985544934E-18   0.00000000000000E+00   0.00000000000000E+00
      0.00000000000000E+00   0.00000000000000E+00   0.00000000000000E+00   0.00000000000000E+00   0.00000000000000E+00
      3.31438722534498E-18   0.00000000000000E+00   0.00000000000000E+00   0.00000000000000E+00   0.00000000000000E+00
      2.17419728514914E-20   1.96260338409223E-34   2.17419728514916E-20  -1.18768422509555E-17   2.93549648775336E-02
      2.93549645112557E-02   0.00000000000000E+00   0.00000000000000E+00   1.55384576547804E-09  -4.99943334452318E-35
      1.55384576547804E-09   4.00870517016111E-18
      3.83280368985698E-02
      0.00000000000000E+00   3.72151880679882E-10   0.00000000000000E+00   0.00000000000000E+00  -1.59129851823303E-09
     -1.49804482776939E-34  -1.59129851823303E-09   4.55278720311500E-18   0.00000000000000E+00   0.00000000000000E+00
      0.00000000000000E+00   0.00000000000000E+00   0.00000000000000E+00   0.00000000000000E+00   0.00000000000000E+00
      3.27549843728657E-18   0.00000000000000E+00   0.00000000000000E+00   0.00000000000000E+00   0.00000000000000E+00
      6.36546089298640E-20   2.03958673419038E-34   6.36546089298642E-20  -1.18763377222837E-17   3.29621117327701E-02
      3.29621113576891E-02   0.00000000000000E+00   0.00000000000000E+00   1.59129851816937E-09  -5.41541906420989E-35
      1.59129851816937E-09   4.04805208188214E-18
      4.29138670091030E-02
      0.00000000000000E+00   3.79126178383598E-10   0.00000000000000E+00   0.00000000000000E+00  -1.62127813182067E-09
     -1.36330238145443E-34  -1.62127813182067E-09   4.55173512140781E-18   0.00000000000000E+00   0.00000000000000E+00
      0.00000000000000E+00   0.00000000000000E+00   0.00000000000000E+00   0.00000000000000E+00   0.00000000000000E+00
      3.23300435872979E-18   0.00000000000000E+00   0.00000000000000E+00   0.00000000000000E+00   0.00000000000000E+00
      4.30899022566747E-20   1.80760570849752E-34   4.30899022566748E-20  -1.18758466827666E-17   3.69059256278286E-02
      3.69059252457243E-02   0.00000000000000E+00   0.00000000000000E+00   1.62127813177758E-09  -4.44303327043095E-35
      1.62127813177758E-09   4.09110720262899E-18
      4.79277079299527E-02
      0.00000000000000E+00   3.84755907258827E-10   0.00000000000000E+00   0.00000000000000E+00  -1.64557964937372E-09
     -1.57685443537338E-34  -1.64557964937372E-09   4.55058530070534E-18   0.00000000000000E+00   0.00000000000000E+00
      0.00000000000000E+00   0.00000000000000E+00   0.00000000000000E+00   0.00000000000000E+00   0.00000000000000E+00
      3.18657121000578E-18   0.00000000000000E+00   0.00000000000000E+00   0.00000000000000E+00   0.00000000000000E+00
     -9.44986747170361E-21   2.03739950719261E-34  -9.44986747170341E-21  -1.18753781703263E-17   4.12178288197593E-02
      4.12178284319914E-02   0.00000000000000E+00   0.00000000000000E+00   1.64557964938317E-09  -4.60545071819230E-35
      1.64557964938317E-09   4.13822165961514E-18
      5.34095073367482E-02
      0.00000000000000E+00   3.89522868045404E-10   0.00000000000000E+00   0.00000000000000E+00  -1.66626796617588E-09
     -1.36493632043889E-34  -1.66626796617588E-09   4.54932865582859E-18   0.00000000000000E+00   0.00000000000000E+00
      0.00000000000000E+00   0.00000000000000E+00   0.00000000000000E+00   0.00000000000000E+00   0.00000000000000E+00
      3.13583414746772E-18   0.00000000000000E+00   0.00000000000000E+00   0.00000000000000E+00   0.00000000000000E+00
     -1.84445363085737E-19   1.68931741281078E-34  -1.84445363085737E-19  -1.18749426625287E-17   4.59321763096035E-02
      4.59321759170483E-02   0.00000000000000E+00   0.00000000000000E+00   1.66626796636032E-09  -3.24381092371887E-35
      1.66626796636032E-09   4.18977985923245E-18
      5.94029413548448E-02
      0.00000000000000E+00   3.93913930850544E-10   0.00000000000000E+00   0.00000000000000E+00  -1.68542620792699E-09
     -1.06240183184594E-34  -1.68542620792699E-09   4.54795525441804E-18   0.00000000000000E+00   0.00000000000000E+00
      0.00000000000000E+00   0.00000000000000E+00   0.00000000000000E+00   0.00000000000000E+00   0.00000000000000E+00
      3.08039433296668E-18   0.00000000000000E+00   0.00000000000000E+00   0.00000000000000E+00   0.00000000000000E+00
     -3.69687837702836E-19   1.33292599150545E-34  -3.69687837702836E-19  -1.18745521803507E-17   5.10865295651665E-02
      5.10865291682110E-02   0.00000000000000E+00   0.00000000000000E+00   1.68542620829668E-09  -2.70524159659517E-35
      1.68542620829668E-09   4.24620259296604E-18
      6.59557625479636E-02
      0.00000000000000E+00   3.98342823867536E-10   0.00000000000000E+00   0.00000000000000E+00  -1.70481808588973E-09
     -1.31827923690464E-34  -1.70481808588973E-09   4.54645423957591E-18   0.00000000000000E+00   0.00000000000000E+00
      0.00000000000000E+00   0.00000000000000E+00   0.00000000000000E+00   0.00000000000000E+00   0.00000000000000E+00
      3.01981574382811E-18   0.00000000000000E+00   0.00000000000000E+00   0.00000000000000E+00   0.00000000000000E+00
      3.71228327284201E-21   1.57591735694178E-34   3.71228327284217E-21  -1.18742203999011E-17   5.67219557912487E-02
      5.67219553898644E-02   0.00000000000000E+00   0.00000000000000E+00   1.70481808588602E-09  -2.57638120037131E-35
      1.70481808588602E-09   4.30795041649712E-18
      7.30764949111528E-02
      0.00000000000000E+00   4.03064322086835E-10   0.00000000000000E+00   0.00000000000000E+00  -1.72552460974696E-09
     -1.32926108199880E-34  -1.72552460974696E-09   4.54482374588793E-18   0.00000000000000E+00   0.00000000000000E+00
      0.00000000000000E+00   0.00000000000000E+00   0.00000000000000E+00   0.00000000000000E+00   0.00000000000000E+00
      2.95402519975157E-18   0.00000000000000E+00   0.00000000000000E+00   0.00000000000000E+00   0.00000000000000E+00
      1.03641180281496E-20   1.50490278585507E-34   1.03641180281498E-20  -1.18739640185711E-17   6.28457856235914E-02
      6.28457852174929E-02   0.00000000000000E+00   0.00000000000000E+00   1.72552460973660E-09  -1.75641703856267E-35
      1.72552460973660E-09   4.37511507293160E-18
      8.08143574124850E-02
      0.00000000000000E+00   4.08247918905737E-10   0.00000000000000E+00   0.00000000000000E+00  -1.74826943227444E-09
     -1.19691240250618E-34  -1.74826943227444E-09   4.54305259106740E-18   0.00000000000000E+00   0.00000000000000E+00
      0.00000000000000E+00   0.00000000000000E+00   0.00000000000000E+00   0.00000000000000E+00   0.00000000000000E+00
      2.88257344495175E-18   0.00000000000000E+00   0.00000000000000E+00   0.00000000000000E+00   0.00000000000000E+00
     -1.11949375585958E-20   1.36159664159123E-34  -1.11949375585957E-20  -1.18737985285761E-17   6.95003473747371E-02
      6.95003469634701E-02   0.00000000000000E+00   0.00000000000000E+00   1.74826943228564E-09  -1.64684239085046E-35
      1.74826943228564E-09   4.44817249255692E-18
      8.92228346639326E-02
      0.00000000000000E+00   4.13987488310268E-10   0.00000000000000E+00   0.00000000000000E+00  -1.77345728438857E-09
     -1.42171171585579E-34  -1.77345728438857E-09   4.54112862830827E-18   0.00000000000000E+00   0.00000000000000E+00
      0.00000000000000E+00   0.00000000000000E+00   0.00000000000000E+00   0.00000000000000E+00   0.00000000000000E+00
      2.80497231259724E-18   0.00000000000000E+00   0.00000000000000E+00   0.00000000000000E+00   0.00000000000000E+00
     -2.90456265621430E-20   1.55195182102169E-34  -2.90456265621429E-20  -1.18737409900883E-17   7.67316378109821E-02
      7.67316373939956E-02   0.00000000000000E+00   0.00000000000000E+00   1.77345728441761E-09  -1.30240105165911E-35
      1.77345728441761E-09   4.52764004918275E-18
      9.83600466105058E-02
      0.00000000000000E+00   4.20300788682540E-10   0.00000000000000E+00   0.00000000000000E+00  -1.80116733306630E-09
     -1.22621485994996E-34  -1.80116733306630E-09   4.53903866517970E-18   0.00000000000000E+00   0.00000000000000E+00
      0.00000000000000E+00   0.00000000000000E+00   0.00000000000000E+00   0.00000000000000E+00   0.00000000000000E+00
      2.72069142004216E-18   0.00000000000000E+00   0.00000000000000E+00   0.00000000000000E+00   0.00000000000000E+00
     -2.69963280983222E-20   1.32097073605752E-34  -2.69963280983220E-20  -1.18738101439488E-17   8.45896400850350E-02
      8.45896396617577E-02   0.00000000000000E+00   0.00000000000000E+00   1.80116733309329E-09  -9.47558761075667E-36
      1.80116733309329E-09   4.61408005872699E-18
      1.08289150259115E-01
      0.00000000000000E+00   4.27183933661597E-10   0.00000000000000E+00   0.00000000000000E+00  -1.83139376435902E-09
     -1.33682220552750E-34  -1.83139376435902E-09   4.53676836756367E-18   0.00000000000000E+00   0.00000000000000E+00
      0.00000000000000E+00   0.00000000000000E+00   0.00000000000000E+00   0.00000000000000E+00   0.00000000000000E+00
      2.62915439507039E-18   0.00000000000000E+00   0.00000000000000E+00   0.00000000000000E+00   0.00000000000000E+00
     -1.33811763872543E-20   1.41686086847945E-34  -1.33811763872542E-20  -1.18740263056760E-17   9.31286692228391E-02
      9.31286687927057E-02   0.00000000000000E+00   0.00000000000000E+00   1.83139376437240E-09  -8.00386629519512E-36
      1.83139376437240E-09   4.70810354304196E-18
      1.18289150259115E-01
      0.00000000000000E+00   4.34127829024379E-10   0.00000000000000E+00   0.00000000000000E+00  -1.86190879373524E-09
     -1.60337450088315E-34  -1.86190879373524E-09   4.53448261363912E-18   0.00000000000000E+00   0.00000000000000E+00
      0.00000000000000E+00   0.00000000000000E+00   0.00000000000000E+00   0.00000000000000E+00   0.00000000000000E+00
      2.53700898908297E-18   0.00000000000000E+00   0.00000000000000E+00   0.00000000000000E+00   0.00000000000000E+00
     -7.53033681202311E-21   1.65931148066466E-34  -7.53033681202295E-21  -1.18743780785405E-17   1.01728669222839E-01
      1.01728668785797E-01   0.00000000000000E+00   0.00000000000000E+00   1.86190879374277E-09  -5.59369797815138E-36
      1.86190879374277E-09   4.80288647581835E-18
      1.28289150259115E-01
      0.00000000000000E+00   4.41098737137417E-10   0.00000000000000E+00   0.00000000000000E+00  -1.89256450350393E-09
     -1.31809301167856E-34  -1.89256450350393E-09   4.53219754165104E-18   0.00000000000000E+00   0.00000000000000E+00
      0.00000000000000E+00   0.00000000000000E+00   0.00000000000000E+00   0.00000000000000E+00   0.00000000000000E+00
      2.44490403576140E-18   0.00000000000000E+00   0.00000000000000E+00   0.00000000000000E+00   0.00000000000000E+00
     -5.82389246472288E-21   1.35902164556363E-34  -5.82389246472274E-21  -1.18748512203916E-17   1.10328669222839E-01
      1.10328668778868E-01   0.00000000000000E+00   0.00000000000000E+00   1.89256450350975E-09  -4.09286338850716E-36
      1.89256450350975E-09   4.89774964297911E-18
      1.38289150259115E-01
      0.00000000000000E+00   4.48112608370073E-10   0.00000000000000E+00   0.00000000000000E+00  -1.92342909790978E-09
     -1.41838098584121E-34  -1.92342909790978E-09   4.52991308924127E-18   0.00000000000000E+00   0.00000000000000E+00
      0.00000000000000E+00   0.00000000000000E+00   0.00000000000000E+00   0.00000000000000E+00   0.00000000000000E+00
      2.35283534422179E-18   0.00000000000000E+00   0.00000000000000E+00   0.00000000000000E+00   0.00000000000000E+00
      1.96385997810388E-21   1.45219562846943E-34   1.96385997810402E-21  -1.18754340887704E-17   1.18928669222839E-01
      1.18928668771892E-01   0.00000000000000E+00   0.00000000000000E+00   1.92342909790782E-09  -3.38146426282144E-36
      1.92342909790782E-09   4.99268565530739E-18
      1.48289150259115E-01
      0.00000000000000E+00   4.55180040103157E-10   0.00000000000000E+00   0.00000000000000E+00  -1.95454770911613E-09
     -1.18465688307440E-34  -1.95454770911613E-09   4.52762920258067E-18   0.00000000000000E+00   0.00000000000000E+00
      0.00000000000000E+00   0.00000000000000E+00   0.00000000000000E+00   0.00000000000000E+00   0.00000000000000E+00
      2.26079934081488E-18   0.00000000000000E+00   0.00000000000000E+00   0.00000000000000E+00   0.00000000000000E+00
     -1.12534137528368E-20   1.20672559933695E-34  -1.12534137528367E-20  -1.18761163825587E-17   1.27528669222839E-01
      1.27528668764857E-01   0.00000000000000E+00   0.00000000000000E+00   1.95454770912739E-09  -2.20687162625524E-36
      1.95454770912739E-09   5.08768783916311E-18
      1.58289150259115E-01
      0.00000000000000E+00   4.62307107375042E-10   0.00000000000000E+00   0.00000000000000E+00  -1.98594595478988E-09
     -1.48485312532834E-34  -1.98594595478988E-09   4.52534583321280E-18   0.00000000000000E+00   0.00000000000000E+00
      0.00000000000000E+00   0.00000000000000E+00   0.00000000000000E+00   0.00000000000000E+00   0.00000000000000E+00
      2.16879292307387E-18   0.00000000000000E+00   0.00000000000000E+00   0.00000000000000E+00   0.00000000000000E+00
     -1.66768322919710E-20   1.50359385982999E-34  -1.66768322919709E-20  -1.18768889091669E-17   1.36128669222839E-01
      1.36128668757759E-01   0.00000000000000E+00   0.00000000000000E+00   1.98594595480656E-09  -1.87407345016496E-36
      1.98594595480656E-09   5.18275015288024E-18
      1.68289150259115E-01
      0.00000000000000E+00   4.69496383571289E-10   0.00000000000000E+00   0.00000000000000E+00  -2.01763433051275E-09
     -1.30477466703797E-34  -2.01763433051275E-09   4.52306293705156E-18   0.00000000000000E+00   0.00000000000000E+00
      0.00000000000000E+00   0.00000000000000E+00   0.00000000000000E+00   0.00000000000000E+00   0.00000000000000E+00
      2.07681335257681E-18   0.00000000000000E+00   0.00000000000000E+00   0.00000000000000E+00   0.00000000000000E+00
     -5.21292638621927E-21   1.31731813652054E-34  -5.21292638621914E-21  -1.18777434045388E-17   1.44728669222839E-01
      1.44728668750598E-01   0.00000000000000E+00   0.00000000000000E+00   2.01763433051797E-09  -1.25434694825744E-36
      2.01763433051797E-09   5.27786711491042E-18
      1.78289150259115E-01
      0.00000000000000E+00   4.76747945518000E-10   0.00000000000000E+00   0.00000000000000E+00  -2.04961280875301E-09
     -1.39386902663173E-34  -2.04961280875301E-09   4.52078047415056E-18   0.00000000000000E+00   0.00000000000000E+00
      0.00000000000000E+00   0.00000000000000E+00   0.00000000000000E+00   0.00000000000000E+00   0.00000000000000E+00
      1.98485820946769E-18   0.00000000000000E+00   0.00000000000000E+00   0.00000000000000E+00   0.00000000000000E+00
     -1.97553057020466E-21   1.40334259248477E-34  -1.97553057020452E-21  -1.18786724301801E-17   1.53328669222839E-01
      1.53328668743374E-01   0.00000000000000E+00   0.00000000000000E+00   2.04961280875498E-09  -9.47356585304384E-37
      2.04961280875498E-09   5.37303374656182E-18
      1.88289150259115E-01
      0.00000000000000E+00   4.84060699742924E-10   0.00000000000000E+00   0.00000000000000E+00  -2.08187670777184E-09