DF-ISE text

Info {
  version   = 1.0
  type      = xyplot
  datasets  = [
    "time"
    "source OuterVoltage" "source InnerVoltage" "source QuasiFermiPotential" "source DisplacementCurrent" "source eCurrent"
    "source hCurrent" "source TotalCurrent" "source Charge" "gate OuterVoltage" "gate InnerVoltage"
    "gate QuasiFermiPotential" "gate DisplacementCurrent" "gate eCurrent" "gate hCurrent" "gate TotalCurrent"
    "gate Charge" "substrate OuterVoltage" "substrate InnerVoltage" "substrate QuasiFermiPotential" "substrate DisplacementCurrent"
    "substrate eCurrent" "substrate hCurrent" "substrate TotalCurrent" "substrate Charge" "drain OuterVoltage"
    "drain InnerVoltage" "drain QuasiFermiPotential" "drain DisplacementCurrent" "drain eCurrent" "drain hCurrent"
    "drain TotalCurrent" "drain Charge" ]
  functions = [
    Time
    OuterVoltage InnerVoltage QuasiFermiPotential DisplacementCurrent eCurrent
    hCurrent TotalCurrent Charge OuterVoltage InnerVoltage
    QuasiFermiPotential DisplacementCurrent eCurrent hCurrent TotalCurrent
    Charge OuterVoltage InnerVoltage QuasiFermiPotential DisplacementCurrent
    eCurrent hCurrent TotalCurrent Charge OuterVoltage
    InnerVoltage QuasiFermiPotential DisplacementCurrent eCurrent hCurrent
    TotalCurrent Charge ]
}

Data {
      0.00000000000000E+00
      0.00000000000000E+00   0.00000000000000E+00   0.00000000000000E+00   0.00000000000000E+00  -1.10702948454096E-21
      7.04252662648553E-34  -1.10702948454025E-21   5.25205367221409E-18   0.00000000000000E+00   0.00000000000000E+00
      0.00000000000000E+00   0.00000000000000E+00   0.00000000000000E+00   0.00000000000000E+00   0.00000000000000E+00
      3.57391665562305E-18   0.00000000000000E+00   0.00000000000000E+00   0.00000000000000E+00   0.00000000000000E+00
     -9.51796033178285E-21  -1.41048596747407E-33  -9.51796033178426E-21  -1.32764126211538E-17   0.00000000000000E+00
      0.00000000000000E+00   0.00000000000000E+00   0.00000000000000E+00   1.06249898163238E-20   7.06233304825517E-34
      1.06249898163245E-20   4.45044229331670E-18
      0.00000000000000E+00
      0.00000000000000E+00   0.00000000000000E+00   0.00000000000000E+00   0.00000000000000E+00  -2.65853062804205E-20
      7.09816527600475E-34  -2.65853062804198E-20   5.24992129205279E-18   0.00000000000000E+00   0.00000000000000E+00
      0.00000000000000E+00   0.00000000000000E+00   0.00000000000000E+00   0.00000000000000E+00   0.00000000000000E+00
      3.56752503605779E-18   0.00000000000000E+00   0.00000000000000E+00   0.00000000000000E+00   0.00000000000000E+00
      5.94700433667701E-20  -1.41208025907782E-33   5.94700433667687E-20  -1.32663361276427E-17   0.00000000000000E+00
      0.00000000000000E+00   0.00000000000000E+00   0.00000000000000E+00  -3.28847370863496E-20   7.02263731477343E-34
     -3.28847370863489E-20   4.44888979953209E-18
      1.00000000000000E-03
      0.00000000000000E+00   2.30659173753538E-11   0.00000000000000E+00   0.00000000000000E+00  -1.18105905952763E-10
      6.50217204974024E-34  -1.18105905952763E-10   5.24953726935445E-18   0.00000000000000E+00   0.00000000000000E+00
      0.00000000000000E+00   0.00000000000000E+00   0.00000000000000E+00   0.00000000000000E+00   0.00000000000000E+00
      3.55711436981761E-18   0.00000000000000E+00   0.00000000000000E+00   0.00000000000000E+00   0.00000000000000E+00
      1.31298938896906E-19  -1.32640966498633E-33   1.31298938896905E-19  -1.32660125183733E-17   8.60000000000000E-04
      8.59999976676630E-04   0.00000000000000E+00   0.00000000000000E+00   1.18105905821464E-10   6.76192460012305E-34
      1.18105905821464E-10   4.45936087920121E-18
      2.08666666666667E-03
      0.00000000000000E+00   4.66489409408181E-11   0.00000000000000E+00   0.00000000000000E+00  -2.38849570426681E-10
      7.05980978077897E-34  -2.38849570426681E-10   5.24912004083013E-18   0.00000000000000E+00   0.00000000000000E+00
      0.00000000000000E+00   0.00000000000000E+00   0.00000000000000E+00   0.00000000000000E+00   0.00000000000000E+00
      3.54580396067303E-18   0.00000000000000E+00   0.00000000000000E+00   0.00000000000000E+00   0.00000000000000E+00
     -1.18446829277138E-19  -1.35507490936917E-33  -1.18446829277139E-19  -1.32656669597513E-17   1.79453333333333E-03
      1.79453328616407E-03   0.00000000000000E+00   0.00000000000000E+00   2.38849570545128E-10   6.49093931291272E-34
      2.38849570545128E-10   4.47074295824816E-18
      3.27475555555556E-03
      0.00000000000000E+00   7.06946051416583E-11   0.00000000000000E+00   0.00000000000000E+00  -3.61948689615710E-10
      6.98661176987067E-34  -3.61948689615710E-10   5.24866396076137E-18   0.00000000000000E+00   0.00000000000000E+00
      0.00000000000000E+00   0.00000000000000E+00   0.00000000000000E+00   0.00000000000000E+00   0.00000000000000E+00
      3.53344086679039E-18   0.00000000000000E+00   0.00000000000000E+00   0.00000000000000E+00   0.00000000000000E+00
      1.01536697437662E-19  -1.31319554165289E-33   1.01536697437660E-19  -1.32652963253723E-17   2.81628977777778E-03
      2.81628970629510E-03   0.00000000000000E+00   0.00000000000000E+00   3.61948689514173E-10   6.14534364665822E-34
      3.61948689514173E-10   4.48319149782055E-18
      4.57373274074074E-03
      0.00000000000000E+00   9.49957269447957E-11   0.00000000000000E+00   0.00000000000000E+00  -4.86339975488997E-10
      6.87512818205183E-34  -4.86339975488997E-10   5.24816541892703E-18   0.00000000000000E+00   0.00000000000000E+00
      0.00000000000000E+00   0.00000000000000E+00   0.00000000000000E+00   0.00000000000000E+00   0.00000000000000E+00
      3.51992735829729E-18   0.00000000000000E+00   0.00000000000000E+00   0.00000000000000E+00   0.00000000000000E+00
     -9.95715665000193E-20  -1.28572835812733E-33  -9.95715665000206E-20  -1.32648995610109E-17   3.93341015703704E-03
      3.93341006098298E-03   0.00000000000000E+00   0.00000000000000E+00   4.86339975588569E-10   5.98215539922145E-34
      4.86339975588569E-10   4.49680678378651E-18
      5.99394779654321E-03
      0.00000000000000E+00   1.19325242589080E-10   0.00000000000000E+00   0.00000000000000E+00  -6.10859446934583E-10
      7.05663914277252E-34  -6.10859446934583E-10   5.24762047060679E-18   0.00000000000000E+00   0.00000000000000E+00
      0.00000000000000E+00   0.00000000000000E+00   0.00000000000000E+00   0.00000000000000E+00   0.00000000000000E+00
      3.50515666976204E-18   0.00000000000000E+00   0.00000000000000E+00   0.00000000000000E+00   0.00000000000000E+00
     -7.80451138272155E-20  -1.27073157732300E-33  -7.80451138272167E-20  -1.32644757323173E-17   5.15479510502716E-03
      5.15479498437335E-03   0.00000000000000E+00   0.00000000000000E+00   6.10859447012629E-10   5.65067663045753E-34
      6.10859447012629E-10   4.51169859194844E-18
      7.54671625755391E-03
      0.00000000000000E+00   1.43435976754269E-10   0.00000000000000E+00   0.00000000000000E+00  -7.34241419810528E-10
      7.00284583422435E-34  -7.34241419810528E-10   5.24702480570858E-18   0.00000000000000E+00   0.00000000000000E+00
      0.00000000000000E+00   0.00000000000000E+00   0.00000000000000E+00   0.00000000000000E+00   0.00000000000000E+00
      3.48901216922104E-18   0.00000000000000E+00   0.00000000000000E+00   0.00000000000000E+00   0.00000000000000E+00
      1.62032137407864E-19  -1.26679276963944E-33   1.62032137407863E-19  -1.32640240693020E-17   6.49017598149636E-03
      6.49017583646428E-03   0.00000000000000E+00   0.00000000000000E+00   7.34241419648496E-10   5.66508186217003E-34
      7.34241419648496E-10   4.52798709437243E-18
      9.24440977492561E-03
      0.00000000000000E+00   1.67064180615372E-10   0.00000000000000E+00   0.00000000000000E+00  -8.55136342273138E-10
      7.17268159967129E-34  -8.55136342273138E-10   5.24637371501393E-18   0.00000000000000E+00   0.00000000000000E+00
      0.00000000000000E+00   0.00000000000000E+00   0.00000000000000E+00   0.00000000000000E+00   0.00000000000000E+00
      3.47136645072966E-18   0.00000000000000E+00   0.00000000000000E+00   0.00000000000000E+00   0.00000000000000E+00
     -6.83387777491877E-20  -1.22393329205463E-33  -6.83387777491890E-20  -1.32635440186636E-17   7.95019240643603E-03
      7.95019223751391E-03   0.00000000000000E+00   0.00000000000000E+00   8.55136342341476E-10   5.06665132087499E-34
      8.55136342341476E-10   4.54580385291998E-18
      1.11005546872520E-02
      0.00000000000000E+00   1.89935342444655E-10   0.00000000000000E+00   0.00000000000000E+00  -9.72141586648786E-10
      7.15724721972825E-34  -9.72141586648786E-10   5.24566205329465E-18   0.00000000000000E+00   0.00000000000000E+00
      0.00000000000000E+00   0.00000000000000E+00   0.00000000000000E+00   0.00000000000000E+00   0.00000000000000E+00
      3.45208034378462E-18   0.00000000000000E+00   0.00000000000000E+00   0.00000000000000E+00   0.00000000000000E+00
      1.48907084036671E-19  -1.21686691457045E-33   1.48907084036670E-19  -1.32630353057391E-17   9.54647703103672E-03
      9.54647683899040E-03   0.00000000000000E+00   0.00000000000000E+00   9.72141586499879E-10   5.01142192597623E-34
      9.72141586499879E-10   4.56529290865984E-18
      1.31299397913955E-02
      0.00000000000000E+00   2.11772795820594E-10   0.00000000000000E+00   0.00000000000000E+00  -1.08384517168581E-09
      6.73493993056944E-34  -1.08384517168581E-09   5.24488419898710E-18   0.00000000000000E+00   0.00000000000000E+00
      0.00000000000000E+00   0.00000000000000E+00   0.00000000000000E+00   0.00000000000000E+00   0.00000000000000E+00
      3.43100183126181E-18   0.00000000000000E+00   0.00000000000000E+00   0.00000000000000E+00   0.00000000000000E+00
     -1.37159083289036E-19  -1.15854902162938E-33  -1.37159083289037E-19  -1.32624980062285E-17   1.12917482206002E-02
      1.12917480064753E-02   0.00000000000000E+00   0.00000000000000E+00   1.08384517182297E-09   4.85055028572434E-34
      1.08384517182297E-09   4.58661197597957E-18
      1.53487341719258E-02
      0.00000000000000E+00   2.32308832028290E-10   0.00000000000000E+00   0.00000000000000E+00  -1.18888319670044E-09
      7.13115964823852E-34  -1.18888319670044E-09   5.24403401007845E-18   0.00000000000000E+00   0.00000000000000E+00
      0.00000000000000E+00   0.00000000000000E+00   0.00000000000000E+00   0.00000000000000E+00   0.00000000000000E+00
      3.40796486661511E-18   0.00000000000000E+00   0.00000000000000E+00   0.00000000000000E+00   0.00000000000000E+00
     -8.79531781748559E-20  -1.15325958711172E-33  -8.79531781748570E-20  -1.32619326277157E-17   1.31999113878562E-02
      1.31999111529691E-02   0.00000000000000E+00   0.00000000000000E+00   1.18888319678839E-09   4.40143622287872E-34
      1.18888319678839E-09   4.60993375102216E-18
      1.77746160279722E-02
      0.00000000000000E+00   2.51297603025871E-10   0.00000000000000E+00   0.00000000000000E+00  -1.28600625404185E-09
      7.32298121852594E-34  -1.28600625404185E-09   5.24310477587629E-18   0.00000000000000E+00   0.00000000000000E+00
      0.00000000000000E+00   0.00000000000000E+00   0.00000000000000E+00   0.00000000000000E+00   0.00000000000000E+00
      3.38278808214574E-18   0.00000000000000E+00   0.00000000000000E+00   0.00000000000000E+00   0.00000000000000E+00
      1.98381385086228E-19  -1.11315417975409E-33   1.98381385086227E-19  -1.32613402037196E-17   1.52861697840561E-02
      1.52861695299714E-02   0.00000000000000E+00   0.00000000000000E+00   1.28600625384346E-09   3.80856057901501E-34
      1.28600625384346E-09   4.63544734569755E-18
      2.04269135239163E-02
      0.00000000000000E+00   2.68530236812436E-10   0.00000000000000E+00   0.00000000000000E+00  -1.37415685471784E-09
      6.94703586421731E-34  -1.37415685471784E-09   5.24208916423139E-18   0.00000000000000E+00   0.00000000000000E+00
      0.00000000000000E+00   0.00000000000000E+00   0.00000000000000E+00   0.00000000000000E+00   0.00000000000000E+00
      3.35527337681300E-18   0.00000000000000E+00   0.00000000000000E+00   0.00000000000000E+00   0.00000000000000E+00
     -1.56432934426266E-19  -1.06574940743285E-33  -1.56432934426267E-19  -1.32607223996261E-17   1.75671456305680E-02
      1.75671453590620E-02   0.00000000000000E+00   0.00000000000000E+00   1.37415685487427E-09   3.71045821011117E-34
      1.37415685487427E-09   4.66335985858171E-18
      2.33267587861485E-02
      0.00000000000000E+00   2.83851981508073E-10   0.00000000000000E+00   0.00000000000000E+00  -1.45255687606023E-09
      7.29935337914846E-34  -1.45255687606023E-09   5.24097916374454E-18   0.00000000000000E+00   0.00000000000000E+00
      0.00000000000000E+00   0.00000000000000E+00   0.00000000000000E+00   0.00000000000000E+00   0.00000000000000E+00
      3.32520436994397E-18   0.00000000000000E+00   0.00000000000000E+00   0.00000000000000E+00   0.00000000000000E+00
     -6.79903575755423E-20  -1.06340187962595E-33  -6.79903575755434E-20  -1.32600816284578E-17   2.00610125560877E-02
      2.00610122690935E-02   0.00000000000000E+00   0.00000000000000E+00   1.45255687612822E-09   3.33466541711106E-34
      1.45255687612822E-09   4.69389809476932E-18
      2.64972562728556E-02
      0.00000000000000E+00   2.97178947917943E-10   0.00000000000000E+00   0.00000000000000E+00  -1.52079361515310E-09
      7.17187549772211E-34  -1.52079361515310E-09   5.23976602049166E-18   0.00000000000000E+00   0.00000000000000E+00
      0.00000000000000E+00   0.00000000000000E+00   0.00000000000000E+00   0.00000000000000E+00   0.00000000000000E+00
      3.29234471040395E-18   0.00000000000000E+00   0.00000000000000E+00   0.00000000000000E+00   0.00000000000000E+00
      6.84555051021499E-20  -1.02627778134140E-33   6.84555051021489E-20  -1.32594211789947E-17   2.27876403946559E-02
      2.27876400941917E-02   0.00000000000000E+00   0.00000000000000E+00   1.52079361508465E-09   3.09090231569193E-34
      1.52079361508465E-09   4.72731044809911E-18
      2.99636668583222E-02
      0.00000000000000E+00   3.08514482279066E-10   0.00000000000000E+00   0.00000000000000E+00  -1.57890288415922E-09
      7.04044766986855E-34  -1.57890288415922E-09   5.23844016875721E-18   0.00000000000000E+00   0.00000000000000E+00
      0.00000000000000E+00   0.00000000000000E+00   0.00000000000000E+00   0.00000000000000E+00   0.00000000000000E+00
      3.25643622562485E-18   0.00000000000000E+00   0.00000000000000E+00   0.00000000000000E+00   0.00000000000000E+00
     -1.17772821551634E-19  -9.98697864470596E-34  -1.17772821551635E-19  -1.32587453558708E-17   2.57687534981571E-02
      2.57687531862378E-02   0.00000000000000E+00   0.00000000000000E+00   1.57890288427699E-09   2.94653097483740E-34
      1.57890288427699E-09   4.76386896148869E-18
      3.37536090984323E-02
      0.00000000000000E+00   3.17962369957271E-10   0.00000000000000E+00   0.00000000000000E+00  -1.62743616342104E-09
      7.11980761824396E-34  -1.62743616342104E-09   5.23699115511141E-18   0.00000000000000E+00   0.00000000000000E+00
      0.00000000000000E+00   0.00000000000000E+00   0.00000000000000E+00   0.00000000000000E+00   0.00000000000000E+00
      3.21719689116102E-18   0.00000000000000E+00   0.00000000000000E+00   0.00000000000000E+00   0.00000000000000E+00
      1.26186903212187E-19  -9.79092128666668E-34   1.26186903212186E-19  -1.32580596237725E-17   2.90281038246517E-02
      2.90281035031883E-02   0.00000000000000E+00   0.00000000000000E+00   1.62743616329485E-09   2.67111366842272E-34
      1.62743616329485E-09   4.80387157750001E-18
      3.78972792809526E-02
      0.00000000000000E+00   3.25733272706657E-10   0.00000000000000E+00   0.00000000000000E+00  -1.66749195345217E-09
      7.01958926616238E-34  -1.66749195345217E-09   5.23540755538417E-18   0.00000000000000E+00   0.00000000000000E+00
      0.00000000000000E+00   0.00000000000000E+00   0.00000000000000E+00   0.00000000000000E+00   0.00000000000000E+00
      3.17431860724246E-18   0.00000000000000E+00   0.00000000000000E+00   0.00000000000000E+00   0.00000000000000E+00
      3.42291697390514E-20  -9.27916705562774E-34   3.42291697390504E-20  -1.32573707615692E-17   3.25916601816192E-02
      3.25916598523111E-02   0.00000000000000E+00   0.00000000000000E+00   1.66749195341794E-09   2.25957778946536E-34
      1.66749195341794E-09   4.84764459894256E-18
      4.24276920138415E-02
      0.00000000000000E+00   3.32139912103991E-10   0.00000000000000E+00   0.00000000000000E+00  -1.70068920075476E-09
      6.80570289227257E-34  -1.70068920075476E-09   5.23367688384110E-18   0.00000000000000E+00   0.00000000000000E+00
      0.00000000000000E+00   0.00000000000000E+00   0.00000000000000E+00   0.00000000000000E+00   0.00000000000000E+00
      3.12746475727173E-18   0.00000000000000E+00   0.00000000000000E+00   0.00000000000000E+00   0.00000000000000E+00
      3.50410773558461E-20  -8.81045570961966E-34   3.50410773558452E-20  -1.32566870147813E-17   3.64878151319037E-02
      3.64878147961351E-02   0.00000000000000E+00   0.00000000000000E+00   1.70068920071972E-09   2.00475281734710E-34
      1.70068920071972E-09   4.89554537366856E-18
      4.73809432684667E-02
      0.00000000000000E+00   3.37575157670214E-10   0.00000000000000E+00   0.00000000000000E+00  -1.72905251451246E-09
      6.98640952384720E-34  -1.72905251451246E-09   5.23178549410908E-18   0.00000000000000E+00   0.00000000000000E+00
      0.00000000000000E+00   0.00000000000000E+00   0.00000000000000E+00   0.00000000000000E+00   0.00000000000000E+00
      3.07626753266722E-18   0.00000000000000E+00   0.00000000000000E+00   0.00000000000000E+00   0.00000000000000E+00
      9.62212180339892E-20  -8.68203282377363E-34   9.62212180339883E-20  -1.32560182492967E-17   4.07476112108814E-02
      4.07476108696413E-02   0.00000000000000E+00   0.00000000000000E+00   1.72905251441624E-09   1.69562329992643E-34
      1.72905251441624E-09   4.94796522252039E-18
      5.27964979735236E-02
      0.00000000000000E+00   3.42474736281557E-10   0.00000000000000E+00   0.00000000000000E+00  -1.75482045536960E-09
      6.73197069000423E-34  -1.75482045536960E-09   5.22971847129034E-18   0.00000000000000E+00   0.00000000000000E+00
      0.00000000000000E+00   0.00000000000000E+00   0.00000000000000E+00   0.00000000000000E+00   0.00000000000000E+00
      3.02032500436615E-18   0.00000000000000E+00   0.00000000000000E+00   0.00000000000000E+00   0.00000000000000E+00
      3.34283345842335E-19  -8.22845646222700E-34   3.34283345842334E-19  -1.32553761059721E-17   4.54049882572303E-02
      4.54049879110698E-02   0.00000000000000E+00   0.00000000000000E+00   1.75482045503531E-09   1.49648577222276E-34
      1.75482045503531E-09   5.00533263031560E-18
      5.87175044510525E-02
      0.00000000000000E+00   3.47267701034278E-10   0.00000000000000E+00   0.00000000000000E+00  -1.78019631895136E-09
      6.96273686259683E-34  -1.78019631895136E-09   5.22745951524180E-18   0.00000000000000E+00   0.00000000000000E+00
      0.00000000000000E+00   0.00000000000000E+00   0.00000000000000E+00   0.00000000000000E+00   0.00000000000000E+00
      2.95919793038508E-18   0.00000000000000E+00   0.00000000000000E+00   0.00000000000000E+00   0.00000000000000E+00
     -5.37337671189843E-20  -8.18478525838406E-34  -5.37337671189851E-20  -1.32547741673893E-17   5.04970538279052E-02
      5.04970534769433E-02   0.00000000000000E+00   0.00000000000000E+00   1.78019631900509E-09   1.22204839578723E-34
      1.78019631900509E-09   5.06811672176243E-18
      6.51516648233006E-02
      0.00000000000000E+00   3.52282401740606E-10   0.00000000000000E+00   0.00000000000000E+00  -1.80685519104342E-09
      6.69218478111359E-34  -1.80685519104342E-09   5.22500586460250E-18   0.00000000000000E+00   0.00000000000000E+00
      0.00000000000000E+00   0.00000000000000E+00   0.00000000000000E+00   0.00000000000000E+00   0.00000000000000E+00
      2.89281342432324E-18   0.00000000000000E+00   0.00000000000000E+00   0.00000000000000E+00   0.00000000000000E+00
     -1.11862444007427E-19  -7.69986890395044E-34  -1.11862444007428E-19  -1.32542311254216E-17   5.60304317480385E-02
      5.60304313920646E-02   0.00000000000000E+00   0.00000000000000E+00   1.80685519115528E-09   1.00768412283684E-34
      1.80685519115528E-09   5.13641183649585E-18
      7.21434524278101E-02
      0.00000000000000E+00   3.57746124864860E-10   0.00000000000000E+00   0.00000000000000E+00  -1.83594844430799E-09
      6.45119506576401E-34  -1.83594844430799E-09   5.22234074724072E-18   0.00000000000000E+00   0.00000000000000E+00
      0.00000000000000E+00   0.00000000000000E+00   0.00000000000000E+00   0.00000000000000E+00   0.00000000000000E+00
      2.82071937365389E-18   0.00000000000000E+00   0.00000000000000E+00   0.00000000000000E+00   0.00000000000000E+00
     -5.70048155682010E-20  -7.31365144445277E-34  -5.70048155682018E-20  -1.32537633011260E-17   6.20433690879167E-02
      6.20433687264901E-02   0.00000000000000E+00   0.00000000000000E+00   1.83594844436499E-09   8.62456378688752E-35
      1.83594844436499E-09   5.21070318023139E-18
      7.97411949580438E-02
      0.00000000000000E+00   3.63775518100004E-10   0.00000000000000E+00   0.00000000000000E+00  -1.86807083675605E-09
      6.84842196635877E-34  -1.86807083675605E-09   5.21944594878303E-18   0.00000000000000E+00   0.00000000000000E+00
      0.00000000000000E+00   0.00000000000000E+00   0.00000000000000E+00   0.00000000000000E+00   0.00000000000000E+00
      2.74242465056310E-18   0.00000000000000E+00   0.00000000000000E+00   0.00000000000000E+00   0.00000000000000E+00
      4.95489101473785E-21  -7.52827763805277E-34   4.95489101473710E-21  -1.32533889723286E-17   6.85774276639177E-02
      6.85774272964823E-02   0.00000000000000E+00   0.00000000000000E+00   1.86807083675110E-09   6.79855671694006E-35
      1.86807083675110E-09   5.29151837298249E-18
      8.79974085075645E-02
      0.00000000000000E+00   3.70440399702022E-10   0.00000000000000E+00   0.00000000000000E+00  -1.90360128360001E-09
      7.00158538687764E-34  -1.90360128360001E-09   5.21630168846343E-18   0.00000000000000E+00   0.00000000000000E+00
      0.00000000000000E+00   0.00000000000000E+00   0.00000000000000E+00   0.00000000000000E+00   0.00000000000000E+00
      2.65739575312274E-18   0.00000000000000E+00   0.00000000000000E+00   0.00000000000000E+00   0.00000000000000E+00
      2.32997740939218E-20  -7.53413565738272E-34   2.32997740939210E-20  -1.32531284751578E-17   7.56777713165054E-02
      7.56777709424387E-02   0.00000000000000E+00   0.00000000000000E+00   1.90360128357671E-09   5.32550270505082E-35
      1.90360128357671E-09   5.37943103357165E-18
      9.69691605647102E-02
      0.00000000000000E+00   3.77784520277236E-10   0.00000000000000E+00   0.00000000000000E+00  -1.94278250333600E-09
      7.25319150951935E-34  -1.94278250333600E-09   5.21288649112160E-18   0.00000000000000E+00   0.00000000000000E+00
      0.00000000000000E+00   0.00000000000000E+00   0.00000000000000E+00   0.00000000000000E+00   0.00000000000000E+00
      2.56505321248214E-18   0.00000000000000E+00   0.00000000000000E+00   0.00000000000000E+00   0.00000000000000E+00
     -1.04351369164308E-19  -7.65370479683765E-34  -1.04351369164309E-19  -1.32530043479173E-17   8.33934780856508E-02
      8.33934777042831E-02   0.00000000000000E+00   0.00000000000000E+00   1.94278250344035E-09   4.00513287318300E-35
      1.94278250344035E-09   5.47506464431351E-18
      1.06718464466809E-01
      0.00000000000000E+00   3.85843887839344E-10   0.00000000000000E+00   0.00000000000000E+00  -1.98581721945257E-09
      7.20210068522918E-34  -1.98581721945257E-09   5.20917704112500E-18   0.00000000000000E+00   0.00000000000000E+00
      0.00000000000000E+00   0.00000000000000E+00   0.00000000000000E+00   0.00000000000000E+00   0.00000000000000E+00
      2.46476763973367E-18   0.00000000000000E+00   0.00000000000000E+00   0.00000000000000E+00   0.00000000000000E+00
     -2.57650310702949E-21  -7.51065748907575E-34  -2.57650310703024E-21  -1.32530413832094E-17   9.17778794414554E-02
      9.17778790520743E-02   0.00000000000000E+00   0.00000000000000E+00   1.98581721945515E-09   3.08556803846571E-35
      1.98581721945515E-09   5.57909670235070E-18
      1.16718464466809E-01
      0.00000000000000E+00   3.94188442251119E-10   0.00000000000000E+00   0.00000000000000E+00  -2.03042555794282E-09
      6.60053434271692E-34  -2.03042555794282E-09   5.20537395598588E-18   0.00000000000000E+00   0.00000000000000E+00
      0.00000000000000E+00   0.00000000000000E+00   0.00000000000000E+00   0.00000000000000E+00   0.00000000000000E+00
      2.36196264535397E-18   0.00000000000000E+00   0.00000000000000E+00   0.00000000000000E+00   0.00000000000000E+00
      4.43495501882153E-20  -6.82849106814216E-34   4.43495501882146E-20  -1.32532490741273E-17   1.00377879441455E-01
      1.00377879043780E-01   0.00000000000000E+00   0.00000000000000E+00   2.03042555789847E-09   2.27956725425232E-35
      2.03042555789847E-09   5.68591247278743E-18
      1.26718464466809E-01
      0.00000000000000E+00   4.02630509764680E-10   0.00000000000000E+00   0.00000000000000E+00  -2.07561017498816E-09
      6.93457473435882E-34  -2.07561017498816E-09   5.20157252607275E-18   0.00000000000000E+00   0.00000000000000E+00
      0.00000000000000E+00   0.00000000000000E+00   0.00000000000000E+00   0.00000000000000E+00   0.00000000000000E+00
      2.25921266563220E-18   0.00000000000000E+00   0.00000000000000E+00   0.00000000000000E+00   0.00000000000000E+00
     -1.11565522140910E-19  -7.10483740598211E-34  -1.11565522140910E-19  -1.32536132099200E-17   1.08977879441455E-01
      1.08977879035400E-01   0.00000000000000E+00   0.00000000000000E+00   2.07561017509972E-09   1.70262671623290E-35
      2.07561017509972E-09   5.79282801821501E-18
      1.36718464466809E-01
      0.00000000000000E+00   4.11189298121881E-10   0.00000000000000E+00   0.00000000000000E+00  -2.12147110053259E-09
      6.54630023650751E-34  -2.12147110053259E-09   5.19777265166159E-18   0.00000000000000E+00   0.00000000000000E+00
      0.00000000000000E+00   0.00000000000000E+00   0.00000000000000E+00   0.00000000000000E+00   0.00000000000000E+00
      2.15651332187728E-18   0.00000000000000E+00   0.00000000000000E+00   0.00000000000000E+00   0.00000000000000E+00
     -5.81032318007295E-20  -6.67565223663400E-34  -5.81032318007302E-20  -1.32541199182704E-17   1.17577879441455E-01
      1.17577879026918E-01   0.00000000000000E+00   0.00000000000000E+00   2.12147110059070E-09   1.29352000126496E-35
      2.12147110059070E-09   5.89983394473157E-18
      1.46718464466809E-01
      0.00000000000000E+00   4.19876449659146E-10   0.00000000000000E+00   0.00000000000000E+00  -2.16806759643651E-09
      7.29649626032865E-34  -2.16806759643651E-09   5.19397425190887E-18   0.00000000000000E+00   0.00000000000000E+00
      0.00000000000000E+00   0.00000000000000E+00   0.00000000000000E+00   0.00000000000000E+00   0.00000000000000E+00
      2.05386089914634E-18   0.00000000000000E+00   0.00000000000000E+00   0.00000000000000E+00   0.00000000000000E+00
     -1.91163191293248E-20  -7.39110558206352E-34  -1.91163191293255E-20  -1.32547568280328E-17   1.26177879441455E-01
      1.26177879018313E-01   0.00000000000000E+00   0.00000000000000E+00   2.16806759645563E-09   9.46093217348611E-36
      2.16806759645563E-09   6.00692167697764E-18
      1.56718464466809E-01
      0.00000000000000E+00   4.28696191672742E-10   0.00000000000000E+00   0.00000000000000E+00  -2.21542114619650E-09
      6.58944434044544E-34  -2.21542114619650E-09   5.19017725719801E-18   0.00000000000000E+00   0.00000000000000E+00
      0.00000000000000E+00   0.00000000000000E+00   0.00000000000000E+00   0.00000000000000E+00   0.00000000000000E+00
      1.95125220600746E-18   0.00000000000000E+00   0.00000000000000E+00   0.00000000000000E+00   0.00000000000000E+00
      7.27966153083894E-20  -6.66008242249306E-34   7.27966153083887E-20  -1.32555128284418E-17   1.34777879441455E-01
      1.34777879009572E-01   0.00000000000000E+00   0.00000000000000E+00   2.21542114612370E-09   7.06380820476324E-36
      2.21542114612370E-09   6.11408336523629E-18
      1.66718464466809E-01
      0.00000000000000E+00   4.37648557486865E-10   0.00000000000000E+00   0.00000000000000E+00  -2.26353164607493E-09
      7.11664073826967E-34  -2.26353164607493E-09   5.18638160555688E-18   0.00000000000000E+00   0.00000000000000E+00
      0.00000000000000E+00   0.00000000000000E+00   0.00000000000000E+00   0.00000000000000E+00   0.00000000000000E+00
      1.84868447639657E-18   0.00000000000000E+00   0.00000000000000E+00   0.00000000000000E+00   0.00000000000000E+00
      1.81878958001163E-20  -7.16926205633691E-34   1.81878958001156E-20  -1.32563778859918E-17   1.43377879441455E-01
      1.43377879000692E-01   0.00000000000000E+00   0.00000000000000E+00   2.26353164605674E-09   5.26213180672377E-36
      2.26353164605674E-09   6.22131180403833E-18
      1.76718464466809E-01
      0.00000000000000E+00   4.46732077585721E-10   0.00000000000000E+00   0.00000000000000E+00  -2.31239173833275E-09
      6.97105394423168E-34  -2.31239173833275E-09   5.18258724156924E-18   0.00000000000000E+00   0.00000000000000E+00
      0.00000000000000E+00   0.00000000000000E+00   0.00000000000000E+00   0.00000000000000E+00   0.00000000000000E+00
      1.74615529648422E-18   0.00000000000000E+00   0.00000000000000E+00   0.00000000000000E+00   0.00000000000000E+00
      2.53870964166187E-21  -7.00977422445651E-34   2.53870964166117E-21  -1.32573429050799E-17   1.51977879441455E-01
      1.51977878991677E-01   0.00000000000000E+00   0.00000000000000E+00   2.31239173833021E-09   3.87202802248342E-36
      2.31239173833021E-09   6.32860036702647E-18
      1.86718464466809E-01
      0.00000000000000E+00   4.55945510033394E-10   0.00000000000000E+00   0.00000000000000E+00  -2.36199588929055E-09