DF-ISE text

Info {
  version   = 1.0
  type      = xyplot
  datasets  = [
    "time"
    "source OuterVoltage" "source InnerVoltage" "source QuasiFermiPotential" "source DisplacementCurrent" "source eCurrent"
    "source hCurrent" "source TotalCurrent" "source Charge" "gate OuterVoltage" "gate InnerVoltage"
    "gate QuasiFermiPotential" "gate DisplacementCurrent" "gate eCurrent" "gate hCurrent" "gate TotalCurrent"
    "gate Charge" "substrate OuterVoltage" "substrate InnerVoltage" "substrate QuasiFermiPotential" "substrate DisplacementCurrent"
    "substrate eCurrent" "substrate hCurrent" "substrate TotalCurrent" "substrate Charge" "drain OuterVoltage"
    "drain InnerVoltage" "drain QuasiFermiPotential" "drain DisplacementCurrent" "drain eCurrent" "drain hCurrent"
    "drain TotalCurrent" "drain Charge" ]
  functions = [
    Time
    OuterVoltage InnerVoltage QuasiFermiPotential DisplacementCurrent eCurrent
    hCurrent TotalCurrent Charge OuterVoltage InnerVoltage
    QuasiFermiPotential DisplacementCurrent eCurrent hCurrent TotalCurrent
    Charge OuterVoltage InnerVoltage QuasiFermiPotential DisplacementCurrent
    eCurrent hCurrent TotalCurrent Charge OuterVoltage
    InnerVoltage QuasiFermiPotential DisplacementCurrent eCurrent hCurrent
    TotalCurrent Charge ]
}

Data {
      0.00000000000000E+00
      0.00000000000000E+00   0.00000000000000E+00   0.00000000000000E+00   0.00000000000000E+00  -1.71175971606464E-21
     -1.09588684321640E-34  -1.71175971606475E-21   4.45787247602321E-18   0.00000000000000E+00   0.00000000000000E+00
      0.00000000000000E+00   0.00000000000000E+00   0.00000000000000E+00   0.00000000000000E+00   0.00000000000000E+00
      3.52849624529423E-18   0.00000000000000E+00   0.00000000000000E+00   0.00000000000000E+00   0.00000000000000E+00
      2.81719290787878E-21   3.30828400500023E-34   2.81719290787911E-21  -1.17528198365912E-17   0.00000000000000E+00
      0.00000000000000E+00   0.00000000000000E+00   0.00000000000000E+00  -1.10543319181414E-21  -2.21239716178383E-34
     -1.10543319181436E-21   3.76645111527375E-18
      0.00000000000000E+00
      0.00000000000000E+00   0.00000000000000E+00   0.00000000000000E+00   0.00000000000000E+00  -2.87911744770711E-20
     -9.38826273983988E-35  -2.87911744770712E-20   4.45580693365375E-18   0.00000000000000E+00   0.00000000000000E+00
      0.00000000000000E+00   0.00000000000000E+00   0.00000000000000E+00   0.00000000000000E+00   0.00000000000000E+00
      3.52227343655407E-18   0.00000000000000E+00   0.00000000000000E+00   0.00000000000000E+00   0.00000000000000E+00
      2.77774051228382E-20   3.06480237104923E-34   2.77774051228385E-20  -1.17430026295833E-17   0.00000000000000E+00
      0.00000000000000E+00   0.00000000000000E+00   0.00000000000000E+00   1.01376935423289E-21  -2.12597609706524E-34
      1.01376935423268E-21   3.76492225937554E-18
      1.00000000000000E-03
      0.00000000000000E+00   1.06134247571398E-12   0.00000000000000E+00   0.00000000000000E+00  -4.32102093144692E-12
     -1.09875518284954E-34  -4.32102093144692E-12   4.45578950170897E-18   0.00000000000000E+00   0.00000000000000E+00
      0.00000000000000E+00   0.00000000000000E+00   0.00000000000000E+00   0.00000000000000E+00   0.00000000000000E+00
      3.52177882093315E-18   0.00000000000000E+00   0.00000000000000E+00   0.00000000000000E+00   0.00000000000000E+00
     -1.05313932756084E-19   3.01595152124653E-34  -1.05313932756084E-19  -1.17429933465970E-17   5.00000000000000E-05
      4.99999989230515E-05   0.00000000000000E+00   0.00000000000000E+00   4.32102103676085E-12  -1.91719633839700E-34
      4.32102103676085E-12   3.76542502395487E-18
      2.09333333333333E-03
      0.00000000000000E+00   2.21824004593582E-12   0.00000000000000E+00   0.00000000000000E+00  -9.03111208926071E-12
     -1.11733982632875E-34  -9.03111208926071E-12   4.45577044293292E-18   0.00000000000000E+00   0.00000000000000E+00
      0.00000000000000E+00   0.00000000000000E+00   0.00000000000000E+00   0.00000000000000E+00   0.00000000000000E+00
      3.52123804740204E-18   0.00000000000000E+00   0.00000000000000E+00   0.00000000000000E+00   0.00000000000000E+00
     -1.79748649924949E-20   3.34222646334205E-34  -1.79748649924945E-20  -1.17429832122660E-17   1.04666666666667E-04
      1.04666664415793E-04   0.00000000000000E+00   0.00000000000000E+00   9.03111210723557E-12  -2.22488663701329E-34
      9.03111210723557E-12   3.76597472193102E-18
      3.29600000000000E-03
      0.00000000000000E+00   3.48647639883749E-12   0.00000000000000E+00   0.00000000000000E+00  -1.41944265000749E-11
     -9.20687133616985E-35  -1.41944265000749E-11   4.45574947846112E-18   0.00000000000000E+00   0.00000000000000E+00
      0.00000000000000E+00   0.00000000000000E+00   0.00000000000000E+00   0.00000000000000E+00   0.00000000000000E+00
      3.52064320400895E-18   0.00000000000000E+00   0.00000000000000E+00   0.00000000000000E+00   0.00000000000000E+00
     -9.42409957270104E-21   3.18636253965603E-34  -9.42409957270072E-21  -1.17429720826667E-17   1.64800000000000E-04
      1.64799996462246E-04   0.00000000000000E+00   0.00000000000000E+00   1.41944265094990E-11  -2.26567540603904E-34
      1.41944265094990E-11   3.76657940019666E-18
      4.61893333333333E-03
      0.00000000000000E+00   4.87613914805560E-12   0.00000000000000E+00   0.00000000000000E+00  -1.98521252479090E-11
     -1.10900308296166E-34  -1.98521252479090E-11   4.45572641776253E-18   0.00000000000000E+00   0.00000000000000E+00
      0.00000000000000E+00   0.00000000000000E+00   0.00000000000000E+00   0.00000000000000E+00   0.00000000000000E+00
      3.51998888533196E-18   0.00000000000000E+00   0.00000000000000E+00   0.00000000000000E+00   0.00000000000000E+00
      4.59548598497566E-21   3.02932826230883E-34   4.59548598497596E-21  -1.17429598620686E-17   2.30946666666667E-04
      2.30946661718809E-04   0.00000000000000E+00   0.00000000000000E+00   1.98521252433135E-11  -1.92032517934717E-34
      1.98521252433135E-11   3.76724455897413E-18
      6.07416000000000E-03
      0.00000000000000E+00   6.39817652643100E-12   0.00000000000000E+00   0.00000000000000E+00  -2.60486773547126E-11
     -1.15923424358532E-34  -2.60486773547126E-11   4.45570105126099E-18   0.00000000000000E+00   0.00000000000000E+00
      0.00000000000000E+00   0.00000000000000E+00   0.00000000000000E+00   0.00000000000000E+00   0.00000000000000E+00
      3.51926914573244E-18   0.00000000000000E+00   0.00000000000000E+00   0.00000000000000E+00   0.00000000000000E+00
      1.68124384594445E-20   3.25748392549195E-34   1.68124384594448E-20  -1.17429464459592E-17   3.03708000000000E-04
      3.03707993507733E-04   0.00000000000000E+00   0.00000000000000E+00   2.60486773379002E-11  -2.09824968190663E-34
      2.60486773379002E-11   3.76797624896572E-18
      7.67490933333333E-03
      0.00000000000000E+00   8.06432765204158E-12   0.00000000000000E+00   0.00000000000000E+00  -3.28319897483109E-11
     -1.59214461063830E-34  -3.28319897483109E-11   4.45567314843238E-18   0.00000000000000E+00   0.00000000000000E+00
      0.00000000000000E+00   0.00000000000000E+00   0.00000000000000E+00   0.00000000000000E+00   0.00000000000000E+00
      3.51847744540081E-18   0.00000000000000E+00   0.00000000000000E+00   0.00000000000000E+00   0.00000000000000E+00
      7.87249787132703E-22   3.79963164426012E-34   7.87249787133083E-22  -1.17429317203299E-17   3.83745466666667E-04
      3.83745458483746E-04   0.00000000000000E+00   0.00000000000000E+00   3.28319897475236E-11  -2.20748703362182E-34
      3.28319897475236E-11   3.76878112649676E-18
      9.43573360000000E-03
      0.00000000000000E+00   9.88727220110737E-12   0.00000000000000E+00   0.00000000000000E+00  -4.02535301789425E-11
     -1.06537161530259E-34  -4.02535301789425E-11   4.45564245571185E-18   0.00000000000000E+00   0.00000000000000E+00
      0.00000000000000E+00   0.00000000000000E+00   0.00000000000000E+00   0.00000000000000E+00   0.00000000000000E+00
      3.51760659102057E-18   0.00000000000000E+00   0.00000000000000E+00   0.00000000000000E+00   0.00000000000000E+00
      4.75809197993143E-21   3.11061604753039E-34   4.75809197993174E-21  -1.17429155609250E-17   4.71786680000000E-04
      4.71786669967341E-04   0.00000000000000E+00   0.00000000000000E+00   4.02535301741844E-11  -2.04524443222780E-34
      4.02535301741844E-11   3.76966651419262E-18
      1.13726402933333E-02
      0.00000000000000E+00   1.18805394136676E-11   0.00000000000000E+00   0.00000000000000E+00  -4.83684250784595E-11
     -1.32479187631112E-34  -4.83684250784595E-11   4.45560869419213E-18   0.00000000000000E+00   0.00000000000000E+00
      0.00000000000000E+00   0.00000000000000E+00   0.00000000000000E+00   0.00000000000000E+00   0.00000000000000E+00
      3.51664867051557E-18   0.00000000000000E+00   0.00000000000000E+00   0.00000000000000E+00   0.00000000000000E+00
     -1.96238288120497E-21   3.46247094850604E-34  -1.96238288120462E-21  -1.17428978324549E-17   5.68632014666667E-04
      5.68632002611441E-04   0.00000000000000E+00   0.00000000000000E+00   4.83684250804219E-11  -2.13767907219492E-34
      4.83684250804219E-11   3.77064046774719E-18
      1.35032376560000E-02
      0.00000000000000E+00   1.40585871821043E-11   0.00000000000000E+00   0.00000000000000E+00  -5.72355211433958E-11
     -1.06123341652862E-34  -5.72355211433958E-11   4.45557155709227E-18   0.00000000000000E+00   0.00000000000000E+00
      0.00000000000000E+00   0.00000000000000E+00   0.00000000000000E+00   0.00000000000000E+00   0.00000000000000E+00
      3.51559498129181E-18   0.00000000000000E+00   0.00000000000000E+00   0.00000000000000E+00   0.00000000000000E+00
      2.02962387402768E-20   3.04936710194909E-34   2.02962387402771E-20  -1.17428783877808E-17   6.75161882800000E-04
      6.75161868534719E-04   0.00000000000000E+00   0.00000000000000E+00   5.72355211230995E-11  -1.98813368542047E-34
      5.72355211230995E-11   3.77171184939670E-18
      1.58468947549333E-02
      0.00000000000000E+00   1.64367926965859E-11   0.00000000000000E+00   0.00000000000000E+00  -6.69173958865459E-11
     -8.99593236623867E-35  -6.69173958865459E-11   4.45553070697388E-18   0.00000000000000E+00   0.00000000000000E+00
      0.00000000000000E+00   0.00000000000000E+00   0.00000000000000E+00   0.00000000000000E+00   0.00000000000000E+00
      3.51443595132753E-18   0.00000000000000E+00   0.00000000000000E+00   0.00000000000000E+00   0.00000000000000E+00
      4.41943128143483E-20   2.91533418502175E-34   4.41943128143486E-20  -1.17428570670765E-17   7.92344737746667E-04
      7.92344721068227E-04   0.00000000000000E+00   0.00000000000000E+00   6.69173958423516E-11  -2.01574094839788E-34
      6.69173958423516E-11   3.77289040877504E-18
      1.84249175637600E-02
      0.00000000000000E+00   1.90314354367825E-11   0.00000000000000E+00   0.00000000000000E+00  -7.74803027403406E-11
     -1.11836979102681E-34  -7.74803027403406E-11   4.45548577267935E-18   0.00000000000000E+00   0.00000000000000E+00
      0.00000000000000E+00   0.00000000000000E+00   0.00000000000000E+00   0.00000000000000E+00   0.00000000000000E+00
      3.51316105240102E-18   0.00000000000000E+00   0.00000000000000E+00   0.00000000000000E+00   0.00000000000000E+00
      5.42839672554080E-20   3.30766498490500E-34   5.42839672554083E-20  -1.17428336969765E-17   9.21245878188001E-04
      9.21245858876800E-04   0.00000000000000E+00   0.00000000000000E+00   7.74803026860566E-11  -2.18929519387819E-34
      7.74803026860566E-11   3.77418687189620E-18
      2.12607426534693E-02
      0.00000000000000E+00   2.18596784627526E-11   0.00000000000000E+00   0.00000000000000E+00  -8.89940323375588E-11
     -1.05697891987465E-34  -8.89940323375588E-11   4.45543634596515E-18   0.00000000000000E+00   0.00000000000000E+00
      0.00000000000000E+00   0.00000000000000E+00   0.00000000000000E+00   0.00000000000000E+00   0.00000000000000E+00
      3.51175870467589E-18   0.00000000000000E+00   0.00000000000000E+00   0.00000000000000E+00   0.00000000000000E+00
      1.28279646237383E-19   3.19584248335218E-34   1.28279646237383E-19  -1.17428080897255E-17   1.06303713267347E-03
      1.06303711049246E-03   0.00000000000000E+00   0.00000000000000E+00   8.89940322092792E-11  -2.13886356347753E-34
      8.89940322092792E-11   3.77561303908449E-18
      2.43801502521496E-02
      0.00000000000000E+00   2.49394918776621E-11   0.00000000000000E+00   0.00000000000000E+00  -1.01531669169683E-10
     -1.28269574715743E-34  -1.01531669169683E-10   4.45538197779944E-18   0.00000000000000E+00   0.00000000000000E+00
      0.00000000000000E+00   0.00000000000000E+00   0.00000000000000E+00   0.00000000000000E+00   0.00000000000000E+00
      3.51021617178607E-18   0.00000000000000E+00   0.00000000000000E+00   0.00000000000000E+00   0.00000000000000E+00
      1.59726817646046E-19   3.59012866491432E-34   1.59726817646046E-19  -1.17427800423425E-17   1.21900751260748E-03
      1.21900748730144E-03   0.00000000000000E+00   0.00000000000000E+00   1.01531669009956E-10  -2.30743291775689E-34
      1.01531669009956E-10   3.77718189275701E-18
      2.78114986106979E-02
      0.00000000000000E+00   2.82895278168924E-11   0.00000000000000E+00   0.00000000000000E+00  -1.15169205259345E-10
     -1.11213070789424E-34  -1.15169205259345E-10   4.45532217429036E-18   0.00000000000000E+00   0.00000000000000E+00
      0.00000000000000E+00   0.00000000000000E+00   0.00000000000000E+00   0.00000000000000E+00   0.00000000000000E+00
      3.50851944548322E-18   0.00000000000000E+00   0.00000000000000E+00   0.00000000000000E+00   0.00000000000000E+00
      2.94619236729748E-19   3.11137204823538E-34   2.94619236729748E-19  -1.17427493358310E-17   1.39057493053490E-03
      1.39057490182961E-03   0.00000000000000E+00   0.00000000000000E+00   1.15169204964726E-10  -1.99924134034114E-34
      1.15169204964726E-10   3.77890771605737E-18
      3.15859818051010E-02
      0.00000000000000E+00   3.19290923843702E-11   0.00000000000000E+00   0.00000000000000E+00  -1.29985012021688E-10
     -9.49976085803573E-35  -1.29985012021688E-10   4.45525639220906E-18   0.00000000000000E+00   0.00000000000000E+00
      0.00000000000000E+00   0.00000000000000E+00   0.00000000000000E+00   0.00000000000000E+00   0.00000000000000E+00
      3.50665311880317E-18   0.00000000000000E+00   0.00000000000000E+00   0.00000000000000E+00   0.00000000000000E+00
      4.24956066763717E-19   2.84671930316171E-34   4.24956066763718E-19  -1.17427157344497E-17   1.57929909025505E-03
      1.57929905785677E-03   0.00000000000000E+00   0.00000000000000E+00   1.29985011596732E-10  -1.89674321735813E-34
      1.29985011596732E-10   3.78080622343744E-18
      3.57379133189445E-02
      0.00000000000000E+00   3.58778531100713E-11   0.00000000000000E+00   0.00000000000000E+00  -1.46059181600832E-10
     -4.96871008292383E-35  -1.46059181600832E-10   4.45518403406599E-18   0.00000000000000E+00   0.00000000000000E+00
      0.00000000000000E+00   0.00000000000000E+00   0.00000000000000E+00   0.00000000000000E+00   0.00000000000000E+00
      3.50460024659938E-18   0.00000000000000E+00   0.00000000000000E+00   0.00000000000000E+00   0.00000000000000E+00
      6.00043343785332E-19   2.40330829580540E-34   6.00043343785332E-19  -1.17426789850594E-17   1.78689566594722E-03
      1.78689562954221E-03   0.00000000000000E+00   0.00000000000000E+00   1.46059181000788E-10  -1.90643728751302E-34
      1.46059181000788E-10   3.78289470439399E-18
      4.03050379841723E-02
      0.00000000000000E+00   4.01556994820867E-11   0.00000000000000E+00   0.00000000000000E+00  -1.63472511443603E-10
     -1.15395918473025E-34  -1.63472511443603E-10   4.45510444269796E-18   0.00000000000000E+00   0.00000000000000E+00
      0.00000000000000E+00   0.00000000000000E+00   0.00000000000000E+00   0.00000000000000E+00   0.00000000000000E+00
      3.50234219226103E-18   0.00000000000000E+00   0.00000000000000E+00   0.00000000000000E+00   0.00000000000000E+00
      9.45961529254707E-19   2.89557330505065E-34   9.45961529254707E-19  -1.17426388166746E-17   2.01525189920861E-03
      2.01525185846298E-03   0.00000000000000E+00   0.00000000000000E+00   1.63472510497641E-10  -1.74161412032040E-34
      1.63472510497641E-10   3.78519218171566E-18
      4.53288751159228E-02
      0.00000000000000E+00   4.47823891743009E-11   0.00000000000000E+00   0.00000000000000E+00  -1.82305326470854E-10
     -1.12067178423053E-34  -1.82305326470854E-10   4.45501689531550E-18   0.00000000000000E+00   0.00000000000000E+00
      0.00000000000000E+00   0.00000000000000E+00   0.00000000000000E+00   0.00000000000000E+00   0.00000000000000E+00
      3.49985845916688E-18   0.00000000000000E+00   0.00000000000000E+00   0.00000000000000E+00   0.00000000000000E+00
      1.40803997268993E-18   3.29071845360536E-34   1.40803997268993E-18  -1.17425949401737E-17   2.26644375579614E-03
      2.26644371035593E-03   0.00000000000000E+00   0.00000000000000E+00   1.82305325062814E-10  -2.17004666937484E-34
      1.82305325062814E-10   3.78771958569133E-18
      5.08550959608485E-02
      0.00000000000000E+00   4.97772078806990E-11   0.00000000000000E+00   0.00000000000000E+00  -2.02635971694405E-10
     -1.07295056215689E-34  -2.02635971694405E-10   4.45492059695813E-18   0.00000000000000E+00   0.00000000000000E+00
      0.00000000000000E+00   0.00000000000000E+00   0.00000000000000E+00   0.00000000000000E+00   0.00000000000000E+00
      3.49712650541367E-18   0.00000000000000E+00   0.00000000000000E+00   0.00000000000000E+00   0.00000000000000E+00
      2.10535633948096E-18   2.70143715180315E-34   2.10535633948096E-18  -1.17425470482901E-17   2.54275479804242E-03
      2.54275474753414E-03   0.00000000000000E+00   0.00000000000000E+00   2.02635969589049E-10  -1.62848658964625E-34
      2.02635969589049E-10   3.79049994591828E-18
      5.69339388902666E-02
      0.00000000000000E+00   5.51585024379526E-11   0.00000000000000E+00   0.00000000000000E+00  -2.24538971808313E-10
     -1.08152984221858E-34  -2.24538971808313E-10   4.45481467329881E-18   0.00000000000000E+00   0.00000000000000E+00
      0.00000000000000E+00   0.00000000000000E+00   0.00000000000000E+00   0.00000000000000E+00   0.00000000000000E+00
      3.49412154015769E-18   0.00000000000000E+00   0.00000000000000E+00   0.00000000000000E+00   0.00000000000000E+00
      6.84134549913799E-18   3.14876511852235E-34   6.84134549913799E-18  -1.17424948159569E-17   2.84669694451333E-03
      2.84669688854484E-03   0.00000000000000E+00   0.00000000000000E+00   2.24538964966967E-10  -2.06723527630377E-34
      2.24538964966967E-10   3.79355860250042E-18
      6.36206661126266E-02
      0.00000000000000E+00   6.09431348594815E-11   0.00000000000000E+00   0.00000000000000E+00  -2.48082742636057E-10
     -1.00741017083641E-34  -2.48082742636057E-10   4.45469816273230E-18   0.00000000000000E+00   0.00000000000000E+00
      0.00000000000000E+00   0.00000000000000E+00   0.00000000000000E+00   0.00000000000000E+00   0.00000000000000E+00
      3.49081629975732E-18   0.00000000000000E+00   0.00000000000000E+00   0.00000000000000E+00   0.00000000000000E+00
      4.47411790018776E-18   3.03710784030452E-34   4.47411790018776E-18  -1.17424379011057E-17   3.18103330563133E-03
      3.18103324379341E-03   0.00000000000000E+00   0.00000000000000E+00   2.48082738161939E-10  -2.02969766946811E-34
      2.48082738161939E-10   3.79692343861606E-18
      7.09760660572226E-02
      0.00000000000000E+00   6.71458351702225E-11   0.00000000000000E+00   0.00000000000000E+00  -2.73327041169650E-10
     -1.10377592719530E-34  -2.73327041169650E-10   4.45457000767771E-18   0.00000000000000E+00   0.00000000000000E+00
      0.00000000000000E+00   0.00000000000000E+00   0.00000000000000E+00   0.00000000000000E+00   0.00000000000000E+00
      3.48718080172669E-18   0.00000000000000E+00   0.00000000000000E+00   0.00000000000000E+00   0.00000000000000E+00
      1.24714089710900E-17   3.22171454064795E-34   1.24714089710900E-17  -1.17423759460439E-17   3.54880330286113E-03
      3.54880323472960E-03   0.00000000000000E+00   0.00000000000000E+00   2.73327028698241E-10  -2.11793861345265E-34
      2.73327028698241E-10   3.80062513663947E-18
      7.90670059962782E-02
      0.00000000000000E+00   7.37784300809195E-11   0.00000000000000E+00   0.00000000000000E+00  -3.00319719148791E-10
     -1.44385862174457E-34  -3.00319719148791E-10   4.45442904501639E-18   0.00000000000000E+00   0.00000000000000E+00
      0.00000000000000E+00   0.00000000000000E+00   0.00000000000000E+00   0.00000000000000E+00   0.00000000000000E+00
      3.48318207431599E-18   0.00000000000000E+00   0.00000000000000E+00   0.00000000000000E+00   0.00000000000000E+00
      9.57626374030221E-18   3.51733694393952E-34   9.57626374030221E-18  -1.17423085795590E-17   3.95335029981391E-03
      3.95335022495262E-03   0.00000000000000E+00   0.00000000000000E+00   3.00319709572527E-10  -2.07347832219495E-34
      3.00319709572527E-10   3.80469746022664E-18
      8.79670399292394E-02
      0.00000000000000E+00   8.08489670614632E-11   0.00000000000000E+00   0.00000000000000E+00  -3.29093279076948E-10
     -9.98095582483702E-35  -3.29093279076948E-10   4.45427399558013E-18   0.00000000000000E+00   0.00000000000000E+00
      0.00000000000000E+00   0.00000000000000E+00   0.00000000000000E+00   0.00000000000000E+00   0.00000000000000E+00
      3.47878385932348E-18   0.00000000000000E+00   0.00000000000000E+00   0.00000000000000E+00   0.00000000000000E+00
      4.61570674344345E-17   2.79670451661470E-34   4.61570674344345E-17  -1.17422354199308E-17   4.39835199646197E-03
      4.39835191442659E-03   0.00000000000000E+00   0.00000000000000E+00   3.29093232919880E-10  -1.79860893413100E-34
      3.29093232919880E-10   3.80917756502723E-18
      9.77570772554967E-02
      0.00000000000000E+00   8.83607321124515E-11   0.00000000000000E+00   0.00000000000000E+00  -3.59660596440474E-10
     -1.13516871121436E-34  -3.59660596440474E-10   4.45410345259568E-18   0.00000000000000E+00   0.00000000000000E+00
      0.00000000000000E+00   0.00000000000000E+00   0.00000000000000E+00   0.00000000000000E+00   0.00000000000000E+00
      3.47394628550045E-18   0.00000000000000E+00   0.00000000000000E+00   0.00000000000000E+00   0.00000000000000E+00
      1.52667756340329E-17   3.01079190336987E-34   1.52667756340329E-17  -1.17421560790549E-17   4.88785386277484E-03
      4.88785377311773E-03   0.00000000000000E+00   0.00000000000000E+00   3.59660581173698E-10  -1.87562319215550E-34
      3.59660581173698E-10   3.81410634095876E-18
      1.07757077255497E-01
      0.00000000000000E+00   9.57539885383582E-11   0.00000000000000E+00   0.00000000000000E+00  -3.89743961702949E-10
     -1.24350485719638E-34  -3.89743961702949E-10   4.45392926427118E-18   0.00000000000000E+00   0.00000000000000E+00
      0.00000000000000E+00   0.00000000000000E+00   0.00000000000000E+00   0.00000000000000E+00   0.00000000000000E+00
      3.46900545885558E-18   0.00000000000000E+00   0.00000000000000E+00   0.00000000000000E+00   0.00000000000000E+00
      2.33171381753970E-17   2.97646827988328E-34   2.33171381753970E-17  -1.17420762558754E-17   5.38785386277483E-03
      5.38785376561629E-03   0.00000000000000E+00   0.00000000000000E+00   3.89743938385811E-10  -1.73296342268690E-34
      3.89743938385811E-10   3.81914153274864E-18
      1.17757077255497E-01
      0.00000000000000E+00   1.02872981271507E-10   0.00000000000000E+00   0.00000000000000E+00  -4.18709619983154E-10
     -1.18073105462313E-34  -4.18709619983154E-10   4.45375508818834E-18   0.00000000000000E+00   0.00000000000000E+00
      0.00000000000000E+00   0.00000000000000E+00   0.00000000000000E+00   0.00000000000000E+00   0.00000000000000E+00
      3.46406512996262E-18   0.00000000000000E+00   0.00000000000000E+00   0.00000000000000E+00   0.00000000000000E+00
      2.34310840602847E-17   3.34282400644460E-34   2.34310840602847E-17  -1.17419976566139E-17   5.88785386277483E-03
      5.88785375839317E-03   0.00000000000000E+00   0.00000000000000E+00   4.18709596552070E-10  -2.16209295182147E-34
      4.18709596552070E-10   3.82417743846299E-18
      1.27757077255497E-01
      0.00000000000000E+00   1.09726002701088E-10   0.00000000000000E+00   0.00000000000000E+00  -4.46591528850678E-10
     -1.04892282386545E-34  -4.46591528850678E-10   4.45358092423702E-18   0.00000000000000E+00   0.00000000000000E+00
      0.00000000000000E+00   0.00000000000000E+00   0.00000000000000E+00   0.00000000000000E+00   0.00000000000000E+00
      3.45912529479516E-18   0.00000000000000E+00   0.00000000000000E+00   0.00000000000000E+00   0.00000000000000E+00
      2.30618859186784E-17   2.86138304922626E-34   2.30618859186784E-17  -1.17419202729740E-17   6.38785386277483E-03
      6.38785375143995E-03   0.00000000000000E+00   0.00000000000000E+00   4.46591505788792E-10  -1.81246022536081E-34
      4.46591505788792E-10   3.82921405394180E-18
      1.37757077255497E-01
      0.00000000000000E+00   1.16321281435223E-10   0.00000000000000E+00   0.00000000000000E+00  -4.73423281232832E-10
     -6.80328301541240E-35  -4.73423281232832E-10   4.45340677230726E-18   0.00000000000000E+00   0.00000000000000E+00
      0.00000000000000E+00   0.00000000000000E+00   0.00000000000000E+00   0.00000000000000E+00   0.00000000000000E+00
      3.45418594936367E-18   0.00000000000000E+00   0.00000000000000E+00   0.00000000000000E+00   0.00000000000000E+00
      2.26857895250913E-17   2.36296327156125E-34   2.26857895250913E-17  -1.17418440967256E-17   6.88785386277483E-03
      6.88785374474828E-03   0.00000000000000E+00   0.00000000000000E+00   4.73423258547043E-10  -1.68263497002001E-34
      4.73423258547043E-10   3.83425137505466E-18
      1.47757077255497E-01
      0.00000000000000E+00   1.22666924472800E-10   0.00000000000000E+00   0.00000000000000E+00  -4.99238005667328E-10
     -1.34241500086523E-34  -4.99238005667328E-10   4.45323263228911E-18   0.00000000000000E+00   0.00000000000000E+00
      0.00000000000000E+00   0.00000000000000E+00   0.00000000000000E+00   0.00000000000000E+00   0.00000000000000E+00
      3.44924708971314E-18   0.00000000000000E+00   0.00000000000000E+00   0.00000000000000E+00   0.00000000000000E+00
      2.23827521303905E-17   2.98901355451777E-34   2.23827521303905E-17  -1.17417691196986E-17   7.38785386277483E-03
      7.38785373830992E-03   0.00000000000000E+00   0.00000000000000E+00   4.99237983284576E-10  -1.64659855365254E-34
      4.99237983284576E-10   3.83928939769633E-18
      1.57757077255497E-01
      0.00000000000000E+00   1.28770906148085E-10   0.00000000000000E+00   0.00000000000000E+00  -5.24068359115647E-10
     -1.21054937095045E-34  -5.24068359115647E-10   4.45305850407192E-18   0.00000000000000E+00   0.00000000000000E+00
      0.00000000000000E+00   0.00000000000000E+00   0.00000000000000E+00   0.00000000000000E+00   0.00000000000000E+00
      3.44430871188680E-18   0.00000000000000E+00   0.00000000000000E+00   0.00000000000000E+00   0.00000000000000E+00
      1.46501480742048E-17   2.86510163705721E-34   1.46501480742048E-17  -1.17416953337321E-17   7.88785386277484E-03
      7.88785373211678E-03   0.00000000000000E+00   0.00000000000000E+00   5.24068344465499E-10  -1.65455226610676E-34
      5.24068344465499E-10   3.84432811777331E-18
      1.67757077255497E-01
      0.00000000000000E+00   1.34641083438180E-10   0.00000000000000E+00   0.00000000000000E+00  -5.47946320053390E-10
     -9.02224194612209E-35  -5.47946320053390E-10   4.45288438754587E-18   0.00000000000000E+00   0.00000000000000E+00
      0.00000000000000E+00   0.00000000000000E+00   0.00000000000000E+00   0.00000000000000E+00   0.00000000000000E+00
      3.43937081198229E-18   0.00000000000000E+00   0.00000000000000E+00   0.00000000000000E+00   0.00000000000000E+00
      6.54011423524324E-18   2.44289694324783E-34   6.54011423524324E-18  -1.17416227307538E-17   8.38785386277484E-03
      8.38785372616089E-03   0.00000000000000E+00   0.00000000000000E+00   5.47946313513275E-10  -1.54067274863562E-34
      5.47946313513275E-10   3.84936753122561E-18
      1.77757077255497E-01
      0.00000000000000E+00   1.40285101567044E-10   0.00000000000000E+00   0.00000000000000E+00  -5.70903272013632E-10
     -1.05146141630359E-34  -5.70903272013632E-10   4.45271028260149E-18   0.00000000000000E+00   0.00000000000000E+00
      0.00000000000000E+00   0.00000000000000E+00   0.00000000000000E+00   0.00000000000000E+00   0.00000000000000E+00
      3.43443338613011E-18   0.00000000000000E+00   0.00000000000000E+00   0.00000000000000E+00   0.00000000000000E+00
      2.12797071922091E-17   2.63064588155816E-34   2.12797071922091E-17  -1.17415513027519E-17   8.88785386277484E-03
      8.88785372043448E-03   0.00000000000000E+00   0.00000000000000E+00   5.70903250733925E-10  -1.57918446525457E-34
      5.70903250733925E-10   3.85440763402024E-18
      1.87757077255497E-01
      0.00000000000000E+00   1.45710490952714E-10   0.00000000000000E+00   0.00000000000000E+00  -5.92969866166881E-10
     -1.02020522553279E-34  -5.92969866166881E-10   4.45253618912978E-18   0.00000000000000E+00   0.00000000000000E+00
      0.00000000000000E+00   0.00000000000000E+00   0.00000000000000E+00   0.00000000000000E+00   0.00000000000000E+00
      3.42949643049487E-18   0.00000000000000E+00   0.00000000000000E+00   0.00000000000000E+00   0.00000000000000E+00
      2.09070639064089E-17   2.65593983158689E-34   2.09070639064089E-17  -1.17414810417729E-17   9.38785386277484E-03
      9.38785371492994E-03   0.00000000000000E+00   0.00000000000000E+00   5.92969845259817E-10  -1.63573460605411E-34
      5.92969845259817E-10   3.85944842214828E-18
      1.97757077255497E-01
      0.00000000000000E+00   1.50924548149312E-10   0.00000000000000E+00   0.00000000000000E+00  -6.14175973572984E-10