DF-ISE text

Info {
  version   = 1.0
  type      = xyplot
  datasets  = [
    "time"
    "source OuterVoltage" "source InnerVoltage" "source QuasiFermiPotential" "source DisplacementCurrent" "source eCurrent"
    "source hCurrent" "source TotalCurrent" "source Charge" "gate OuterVoltage" "gate InnerVoltage"
    "gate QuasiFermiPotential" "gate DisplacementCurrent" "gate eCurrent" "gate hCurrent" "gate TotalCurrent"
    "gate Charge" "substrate OuterVoltage" "substrate InnerVoltage" "substrate QuasiFermiPotential" "substrate DisplacementCurrent"
    "substrate eCurrent" "substrate hCurrent" "substrate TotalCurrent" "substrate Charge" "drain OuterVoltage"
    "drain InnerVoltage" "drain QuasiFermiPotential" "drain DisplacementCurrent" "drain eCurrent" "drain hCurrent"
    "drain TotalCurrent" "drain Charge" ]
  functions = [
    Time
    OuterVoltage InnerVoltage QuasiFermiPotential DisplacementCurrent eCurrent
    hCurrent TotalCurrent Charge OuterVoltage InnerVoltage
    QuasiFermiPotential DisplacementCurrent eCurrent hCurrent TotalCurrent
    Charge OuterVoltage InnerVoltage QuasiFermiPotential DisplacementCurrent
    eCurrent hCurrent TotalCurrent Charge OuterVoltage
    InnerVoltage QuasiFermiPotential DisplacementCurrent eCurrent hCurrent
    TotalCurrent Charge ]
}

Data {
      0.00000000000000E+00
      0.00000000000000E+00   0.00000000000000E+00   0.00000000000000E+00   0.00000000000000E+00   1.53510776233865E-20
      5.44375074481326E-34   1.53510776233870E-20   5.68225082668361E-18   0.00000000000000E+00   0.00000000000000E+00
      0.00000000000000E+00   0.00000000000000E+00   0.00000000000000E+00   0.00000000000000E+00   0.00000000000000E+00
      4.58688792853702E-18   0.00000000000000E+00   0.00000000000000E+00   0.00000000000000E+00   0.00000000000000E+00
     -9.71634826846919E-21  -1.13981443687667E-33  -9.71634826847033E-21  -1.51114021481082E-17   0.00000000000000E+00
      0.00000000000000E+00   0.00000000000000E+00   0.00000000000000E+00  -5.63472935491725E-21   5.95439362395344E-34
     -5.63472935491666E-21   4.84226339288757E-18
      0.00000000000000E+00
      0.00000000000000E+00   0.00000000000000E+00   0.00000000000000E+00   0.00000000000000E+00  -2.49974641295095E-19
      5.65539136449516E-34  -2.49974641295095E-19   5.68004817312196E-18   0.00000000000000E+00   0.00000000000000E+00
      0.00000000000000E+00   0.00000000000000E+00   0.00000000000000E+00   0.00000000000000E+00   0.00000000000000E+00
      4.57952923859323E-18   0.00000000000000E+00   0.00000000000000E+00   0.00000000000000E+00   0.00000000000000E+00
      2.60999636753064E-19  -1.11776437806350E-33   2.60999636753062E-19  -1.51000444982457E-17   0.00000000000000E+00
      0.00000000000000E+00   0.00000000000000E+00   0.00000000000000E+00  -1.10249954579679E-20   5.52225241613980E-34
     -1.10249954579674E-20   4.84046708653056E-18
      1.00000000000000E-03
      0.00000000000000E+00   1.57204015870546E-11   0.00000000000000E+00   0.00000000000000E+00  -8.06623602591227E-11
      5.42751124865323E-34  -8.06623602591227E-11   5.67975090505181E-18   0.00000000000000E+00   0.00000000000000E+00
      0.00000000000000E+00   0.00000000000000E+00   0.00000000000000E+00   0.00000000000000E+00   0.00000000000000E+00
      4.56833274799477E-18   0.00000000000000E+00   0.00000000000000E+00   0.00000000000000E+00   0.00000000000000E+00
      8.07247981758577E-20  -1.08642579898250E-33   8.07247981758567E-20  -1.50996013315855E-17   8.60000000000000E-04
      8.59999984213446E-04   0.00000000000000E+00   0.00000000000000E+00   8.06623601783979E-11   5.43674674117172E-34
      8.06623601783979E-11   4.85151767853889E-18
      2.08666666666667E-03
      0.00000000000000E+00   3.18333675471813E-11   0.00000000000000E+00   0.00000000000000E+00  -1.63331191423356E-10
      5.85736839420870E-34  -1.63331191423356E-10   5.67942792414897E-18   0.00000000000000E+00   0.00000000000000E+00
      0.00000000000000E+00   0.00000000000000E+00   0.00000000000000E+00   0.00000000000000E+00   0.00000000000000E+00
      4.55616844554442E-18   0.00000000000000E+00   0.00000000000000E+00   0.00000000000000E+00   0.00000000000000E+00
      1.00600818706806E-15  -1.12761073790425E-33   1.00600818706806E-15  -1.50991264825122E-17   1.79453333333333E-03
      1.79453330136627E-03   0.00000000000000E+00   0.00000000000000E+00   1.63330185415169E-10   5.41873898483385E-34
      1.63330185415169E-10   4.86353011281880E-18
      3.28200000000000E-03
      0.00000000000000E+00   4.84090768434055E-11   0.00000000000000E+00   0.00000000000000E+00  -2.48363472715297E-10
      5.22096712858887E-34  -2.48363472715297E-10   5.67907270505423E-18   0.00000000000000E+00   0.00000000000000E+00
      0.00000000000000E+00   0.00000000000000E+00   0.00000000000000E+00   0.00000000000000E+00   0.00000000000000E+00
      4.54279073496597E-18   0.00000000000000E+00   0.00000000000000E+00   0.00000000000000E+00   0.00000000000000E+00
      1.85168461595506E-20  -1.04431416472196E-33   1.85168461595496E-20  -1.50986121445870E-17   2.82252000000000E-03
      2.82251995138817E-03   0.00000000000000E+00   0.00000000000000E+00   2.48363472696780E-10   5.22217451863073E-34
      2.48363472696780E-10   4.87674870456679E-18
      4.58889777777778E-03
      0.00000000000000E+00   6.52116721905781E-11   0.00000000000000E+00   0.00000000000000E+00  -3.34547471911985E-10
      5.56112369726930E-34  -3.34547471911985E-10   5.67868440281255E-18   0.00000000000000E+00   0.00000000000000E+00
      0.00000000000000E+00   0.00000000000000E+00   0.00000000000000E+00   0.00000000000000E+00   0.00000000000000E+00
      4.52816800178930E-18   0.00000000000000E+00   0.00000000000000E+00   0.00000000000000E+00   0.00000000000000E+00
     -1.89904206859292E-19  -1.06455953791190E-33  -1.89904206859293E-19  -1.50980592662942E-17   3.94645208888889E-03
      3.94645202340468E-03   0.00000000000000E+00   0.00000000000000E+00   3.34547472101889E-10   5.08447168184973E-34
      3.34547472101889E-10   4.89120686169236E-18
      6.01777268148148E-03
      0.00000000000000E+00   8.20915329212390E-11   0.00000000000000E+00   0.00000000000000E+00  -4.21113901606130E-10
      5.47009909867545E-34  -4.21113901606130E-10   5.67825994182440E-18   0.00000000000000E+00   0.00000000000000E+00
      0.00000000000000E+00   0.00000000000000E+00   0.00000000000000E+00   0.00000000000000E+00   0.00000000000000E+00
      4.51218466397410E-18   0.00000000000000E+00   0.00000000000000E+00   0.00000000000000E+00   0.00000000000000E+00
      1.78905218309888E-19  -1.03478013047706E-33   1.78905218309887E-19  -1.50974659430833E-17   5.17528450607408E-03
      5.17528442364024E-03   0.00000000000000E+00   0.00000000000000E+00   4.21113901427224E-10   4.87770220609519E-34
      4.21113901427224E-10   4.90702133728480E-18
      7.58000924286420E-03
      0.00000000000000E+00   9.88836276196742E-11   0.00000000000000E+00   0.00000000000000E+00  -5.07215408472099E-10
      5.68934793316014E-34  -5.07215408472099E-10   5.67779596125844E-18   0.00000000000000E+00   0.00000000000000E+00
      0.00000000000000E+00   0.00000000000000E+00   0.00000000000000E+00   0.00000000000000E+00   0.00000000000000E+00
      4.49471445171092E-18   0.00000000000000E+00   0.00000000000000E+00   0.00000000000000E+00   0.00000000000000E+00
      6.15429908080022E-21  -1.03449689481367E-33   6.15429908079918E-21  -1.50968303788591E-17   6.51880794886321E-03
      6.51880784956818E-03   0.00000000000000E+00   0.00000000000000E+00   5.07215408465944E-10   4.65562101497659E-34
      5.07215408465944E-10   4.92431996588971E-18
      9.28805454997597E-03
      0.00000000000000E+00   1.15409355808560E-10   0.00000000000000E+00   0.00000000000000E+00  -5.91935647753660E-10
      5.96963490134112E-34  -5.91935647753660E-10   5.67728878865022E-18   0.00000000000000E+00   0.00000000000000E+00
      0.00000000000000E+00   0.00000000000000E+00   0.00000000000000E+00   0.00000000000000E+00   0.00000000000000E+00
      4.47561942364149E-18   0.00000000000000E+00   0.00000000000000E+00   0.00000000000000E+00   0.00000000000000E+00
     -8.03184489925539E-20  -1.03889399011567E-33  -8.03184489925549E-20  -1.50961509396963E-17   7.98772691297934E-03
      7.98772679709083E-03   0.00000000000000E+00   0.00000000000000E+00   5.91935647833979E-10   4.41930499981553E-34
      5.91935647833979E-10   4.94324272740452E-18
      1.11555174190848E-02
      0.00000000000000E+00   1.31480055619274E-10   0.00000000000000E+00   0.00000000000000E+00  -6.74308109444362E-10
      5.43659826167657E-34  -6.74308109444362E-10   5.67673441103469E-18   0.00000000000000E+00   0.00000000000000E+00
      0.00000000000000E+00   0.00000000000000E+00   0.00000000000000E+00   0.00000000000000E+00   0.00000000000000E+00
      4.45474889223053E-18   0.00000000000000E+00   0.00000000000000E+00   0.00000000000000E+00   0.00000000000000E+00
     -2.05871846407826E-19  -9.48373435772314E-34  -2.05871846407827E-19  -1.50954262175009E-17   9.59374498041296E-03
      9.59374484838811E-03   0.00000000000000E+00   0.00000000000000E+00   6.74308109650234E-10   4.04713609604656E-34
      6.74308109650234E-10   4.96394291423566E-18
      1.31972768226439E-02
      0.00000000000000E+00   1.46902350752900E-10   0.00000000000000E+00   0.00000000000000E+00  -7.53343069048863E-10
      5.70984095927225E-34  -7.53343069048863E-10   5.67612844338873E-18   0.00000000000000E+00   0.00000000000000E+00
      0.00000000000000E+00   0.00000000000000E+00   0.00000000000000E+00   0.00000000000000E+00   0.00000000000000E+00
      4.43193825023023E-18   0.00000000000000E+00   0.00000000000000E+00   0.00000000000000E+00   0.00000000000000E+00
      5.14286948013571E-20  -9.57033746903256E-34   5.14286948013562E-20  -1.50946551055170E-17   1.13496580674737E-02
      1.13496579199638E-02   0.00000000000000E+00   0.00000000000000E+00   7.53343068997435E-10   3.86049650976030E-34
      7.53343068997435E-10   4.98658841189807E-18
      1.54296004372017E-02
      0.00000000000000E+00   1.61484961366480E-10   0.00000000000000E+00   0.00000000000000E+00  -8.28063370713258E-10
      5.39289944941807E-34  -8.28063370713258E-10   5.67546609411642E-18   0.00000000000000E+00   0.00000000000000E+00
      0.00000000000000E+00   0.00000000000000E+00   0.00000000000000E+00   0.00000000000000E+00   0.00000000000000E+00
      4.40700768829328E-18   0.00000000000000E+00   0.00000000000000E+00   0.00000000000000E+00   0.00000000000000E+00
      3.31966241714878E-20  -9.05686125895860E-34   3.31966241714869E-20  -1.50938368861512E-17   1.32694563759935E-02
      1.32694562138418E-02   0.00000000000000E+00   0.00000000000000E+00   8.28063370680061E-10   3.66396180954053E-34
      8.28063370680061E-10   5.01136310374155E-18
      1.78702742557850E-02
      0.00000000000000E+00   1.75047424531150E-10   0.00000000000000E+00   0.00000000000000E+00  -8.97548989711467E-10
      5.63986215633514E-34  -8.97548989711467E-10   5.67474212728657E-18   0.00000000000000E+00   0.00000000000000E+00
      0.00000000000000E+00   0.00000000000000E+00   0.00000000000000E+00   0.00000000000000E+00   0.00000000000000E+00
      4.37976079331258E-18   0.00000000000000E+00   0.00000000000000E+00   0.00000000000000E+00   0.00000000000000E+00
     -3.12129585672392E-19  -9.10166768869584E-34  -3.12129585672393E-19  -1.50929713322725E-17   1.53684358599751E-02
      1.53684356842060E-02   0.00000000000000E+00   0.00000000000000E+00   8.97548990023597E-10   3.46180553236069E-34
      8.97548990023597E-10   5.03846841167333E-18
      2.05387442974361E-02
      0.00000000000000E+00   1.87430054194902E-10   0.00000000000000E+00   0.00000000000000E+00  -9.60988557083648E-10
      5.83825845343231E-34  -9.60988557083648E-10   5.67395082131382E-18   0.00000000000000E+00   0.00000000000000E+00
      0.00000000000000E+00   0.00000000000000E+00   0.00000000000000E+00   0.00000000000000E+00   0.00000000000000E+00
      4.34998301631880E-18   0.00000000000000E+00   0.00000000000000E+00   0.00000000000000E+00   0.00000000000000E+00
     -2.60633748576783E-19  -9.11992819427800E-34  -2.60633748576784E-19  -1.50920588233969E-17   1.76633200957950E-02
      1.76633199075933E-02   0.00000000000000E+00   0.00000000000000E+00   9.60988557344281E-10   3.28166974084569E-34
      9.60988557344281E-10   5.06812498576430E-18
      2.34562715429746E-02
      0.00000000000000E+00   1.98505448928830E-10   0.00000000000000E+00   0.00000000000000E+00  -1.01773820389883E-09
      5.75723732622541E-34  -1.01773820389883E-09   5.67308592373571E-18   0.00000000000000E+00   0.00000000000000E+00
      0.00000000000000E+00   0.00000000000000E+00   0.00000000000000E+00   0.00000000000000E+00   0.00000000000000E+00
      4.31743999639910E-18   0.00000000000000E+00   0.00000000000000E+00   0.00000000000000E+00   0.00000000000000E+00
     -2.84600349798529E-19  -8.60656616457878E-34  -2.84600349798530E-19  -1.50911004768576E-17   2.01723935269581E-02
      2.01723933276364E-02   0.00000000000000E+00   0.00000000000000E+00   1.01773820418343E-09   2.84932883835337E-34
      1.01773820418343E-09   5.10057455672283E-18
      2.66461013314300E-02
      0.00000000000000E+00   2.08190556332353E-10   0.00000000000000E+00   0.00000000000000E+00  -1.06738348906214E-09
      5.94227286514025E-34  -1.06738348906214E-09   5.67214060167637E-18   0.00000000000000E+00   0.00000000000000E+00
      0.00000000000000E+00   0.00000000000000E+00   0.00000000000000E+00   0.00000000000000E+00   0.00000000000000E+00
      4.28187572605582E-18   0.00000000000000E+00   0.00000000000000E+00   0.00000000000000E+00   0.00000000000000E+00
     -2.70306269049457E-19  -8.56559595846901E-34  -2.70306269049457E-19  -1.50900982933957E-17   2.29156471450298E-02
      2.29156469359840E-02   0.00000000000000E+00   0.00000000000000E+00   1.06738348933244E-09   2.62332309332876E-34
      1.06738348933244E-09   5.13608196566349E-18
      3.01336485668079E-02
      0.00000000000000E+00   2.16458290194492E-10   0.00000000000000E+00   0.00000000000000E+00  -1.10979885263726E-09
      5.48794054850413E-34  -1.10979885263726E-09   5.67110738763573E-18   0.00000000000000E+00   0.00000000000000E+00
      0.00000000000000E+00   0.00000000000000E+00   0.00000000000000E+00   0.00000000000000E+00   0.00000000000000E+00
      4.24301054427803E-18   0.00000000000000E+00   0.00000000000000E+00   0.00000000000000E+00   0.00000000000000E+00
     -1.56494584335736E-19  -7.83412778759879E-34  -1.56494584335737E-19  -1.50890553202839E-17   2.59149377674548E-02
      2.59149375501082E-02   0.00000000000000E+00   0.00000000000000E+00   1.10979885279375E-09   2.34618723909465E-34
      1.10979885279375E-09   5.17493738837013E-18
      3.39467002108211E-02
      0.00000000000000E+00   2.23348001592568E-10   0.00000000000000E+00   0.00000000000000E+00  -1.14520048603401E-09
      5.51968301711130E-34  -1.14520048603401E-09   5.66997812009325E-18   0.00000000000000E+00   0.00000000000000E+00
      0.00000000000000E+00   0.00000000000000E+00   0.00000000000000E+00   0.00000000000000E+00   0.00000000000000E+00
      4.20053893638577E-18   0.00000000000000E+00   0.00000000000000E+00   0.00000000000000E+00   0.00000000000000E+00
     -6.89743747690412E-19  -7.70116593363812E-34  -6.89743747690413E-19  -1.50879758265970E-17   2.91941621813061E-02
      2.91941619570430E-02   0.00000000000000E+00   0.00000000000000E+00   1.14520048672375E-09   2.18148291652682E-34
      1.14520048672375E-09   5.21745877011802E-18
      3.81156366749421E-02
      0.00000000000000E+00   2.28972073344326E-10   0.00000000000000E+00   0.00000000000000E+00  -1.17417966786787E-09
      5.78238973337837E-34  -1.17417966786787E-09   5.66874387850939E-18   0.00000000000000E+00   0.00000000000000E+00
      0.00000000000000E+00   0.00000000000000E+00   0.00000000000000E+00   0.00000000000000E+00   0.00000000000000E+00
      4.15412712339594E-18   0.00000000000000E+00   0.00000000000000E+00   0.00000000000000E+00   0.00000000000000E+00
     -3.08719862656038E-19  -7.68310547474181E-34  -3.08719862656039E-19  -1.50868654923806E-17   3.27794475404502E-02
      3.27794473105422E-02   0.00000000000000E+00   0.00000000000000E+00   1.17417966817659E-09   1.90071574136344E-34
      1.17417966817659E-09   5.26399449047530E-18
      4.26736738757145E-02
      0.00000000000000E+00   2.33516048590575E-10   0.00000000000000E+00   0.00000000000000E+00  -1.19770170981525E-09
      5.71333283022830E-34  -1.19770170981525E-09   5.66739491222868E-18   0.00000000000000E+00   0.00000000000000E+00
      0.00000000000000E+00   0.00000000000000E+00   0.00000000000000E+00   0.00000000000000E+00   0.00000000000000E+00
      4.10341041825017E-18   0.00000000000000E+00   0.00000000000000E+00   0.00000000000000E+00   0.00000000000000E+00
     -1.03422400213264E-18  -7.26947036752726E-34  -1.03422400213264E-18  -1.50857316073054E-17   3.66993595331145E-02
      3.66993592986477E-02   0.00000000000000E+00   0.00000000000000E+00   1.19770171084948E-09   1.55613753729896E-34
      1.19770171084948E-09   5.31492627682649E-18
      4.76571278818923E-02
      0.00000000000000E+00   2.37228452002348E-10   0.00000000000000E+00   0.00000000000000E+00  -1.21705185438628E-09
      5.36406985130658E-34  -1.21705185438628E-09   5.66592056283870E-18   0.00000000000000E+00   0.00000000000000E+00
      0.00000000000000E+00   0.00000000000000E+00   0.00000000000000E+00   0.00000000000000E+00   0.00000000000000E+00
      4.04799032705922E-18   0.00000000000000E+00   0.00000000000000E+00   0.00000000000000E+00   0.00000000000000E+00
     -1.70625371988994E-18  -6.72817812153469E-34  -1.70625371988994E-18  -1.50845832781755E-17   4.09851299784274E-02
      4.09851297402399E-02   0.00000000000000E+00   0.00000000000000E+00   1.21705185609253E-09   1.36410827022811E-34
      1.21705185609253E-09   5.37067238827752E-18
      5.31057042619801E-02
      0.00000000000000E+00   2.40398325356836E-10   0.00000000000000E+00   0.00000000000000E+00  -1.23371926970940E-09
      5.45138283820899E-34  -1.23371926970940E-09   5.66430917954900E-18   0.00000000000000E+00   0.00000000000000E+00
      0.00000000000000E+00   0.00000000000000E+00   0.00000000000000E+00   0.00000000000000E+00   0.00000000000000E+00
      3.98743137601669E-18   0.00000000000000E+00   0.00000000000000E+00   0.00000000000000E+00   0.00000000000000E+00
     -1.58486158063212E-17  -6.66681396722484E-34  -1.58486158063212E-17  -1.50834316483112E-17   4.56709056653029E-02
      4.56709054239435E-02   0.00000000000000E+00   0.00000000000000E+00   1.23371928555801E-09   1.21543112901584E-34
      1.23371928555801E-09   5.43169109274551E-18
      5.90628144375427E-02
      0.00000000000000E+00   2.43323815039963E-10   0.00000000000000E+00   0.00000000000000E+00  -1.24923484289583E-09
      5.64343830848998E-34  -1.24923484289583E-09   5.66254802711848E-18   0.00000000000000E+00   0.00000000000000E+00
      0.00000000000000E+00   0.00000000000000E+00   0.00000000000000E+00   0.00000000000000E+00   0.00000000000000E+00
      3.92125763568973E-18   0.00000000000000E+00   0.00000000000000E+00   0.00000000000000E+00   0.00000000000000E+00
     -1.98563588122168E-17  -6.66834486676275E-34  -1.98563588122168E-17  -1.50822901214587E-17   5.07940204162867E-02
      5.07940201720070E-02   0.00000000000000E+00   0.00000000000000E+00   1.24923486275219E-09   1.02490655827276E-34
      1.24923486275219E-09   5.49848445865053E-18
      6.55759215628244E-02
      0.00000000000000E+00   2.46270643050818E-10   0.00000000000000E+00   0.00000000000000E+00  -1.26496029811696E-09
      5.58974778510659E-34  -1.26496029811696E-09   5.66062318621089E-18   0.00000000000000E+00   0.00000000000000E+00
      0.00000000000000E+00   0.00000000000000E+00   0.00000000000000E+00   0.00000000000000E+00   0.00000000000000E+00
      3.84894893743890E-18   0.00000000000000E+00   0.00000000000000E+00   0.00000000000000E+00   0.00000000000000E+00
     -1.52810674291359E-19  -6.43971126837191E-34  -1.52810674291360E-19  -1.50811746141693E-17   5.63952925440290E-02
      5.63952922968156E-02   0.00000000000000E+00   0.00000000000000E+00   1.26496029826977E-09   8.49963483265319E-35
      1.26496029826977E-09   5.57160249051948E-18
      7.26534979722973E-02
      0.00000000000000E+00   2.49410198058229E-10   0.00000000000000E+00   0.00000000000000E+00  -1.28176376618182E-09
      5.81522508460223E-34  -1.28176376618182E-09   5.65853227025711E-18   0.00000000000000E+00   0.00000000000000E+00
      0.00000000000000E+00   0.00000000000000E+00   0.00000000000000E+00   0.00000000000000E+00   0.00000000000000E+00
      3.77041838847353E-18   0.00000000000000E+00   0.00000000000000E+00   0.00000000000000E+00   0.00000000000000E+00
      4.04051107179786E-19  -6.51537155793396E-34   4.04051107179785E-19  -1.50801098975757E-17   6.24820082561757E-02
      6.24820080058430E-02   0.00000000000000E+00   0.00000000000000E+00   1.28176376577777E-09   7.00146473331725E-35
      1.28176376577777E-09   5.65115923884508E-18
      8.03444643372578E-02
      0.00000000000000E+00   2.52846790126868E-10   0.00000000000000E+00   0.00000000000000E+00  -1.30017454813852E-09
      5.76203257658161E-34  -1.30017454813852E-09   5.65626094811986E-18   0.00000000000000E+00   0.00000000000000E+00
      0.00000000000000E+00   0.00000000000000E+00   0.00000000000000E+00   0.00000000000000E+00   0.00000000000000E+00
      3.68513037627714E-18   0.00000000000000E+00   0.00000000000000E+00   0.00000000000000E+00   0.00000000000000E+00
      6.00434094693596E-20  -6.29367175415945E-34   6.00434094693590E-20  -1.50791158277225E-17   6.90962393300417E-02
      6.90962390763008E-02   0.00000000000000E+00   0.00000000000000E+00   1.30017454807848E-09   5.31639177577838E-35
      1.30017454807848E-09   5.73772450332550E-18
      8.87019811205149E-02
      0.00000000000000E+00   2.56638093758451E-10   0.00000000000000E+00   0.00000000000000E+00  -1.32049673966383E-09
      5.64990693554575E-34  -1.32049673966383E-09   5.65379365147022E-18   0.00000000000000E+00   0.00000000000000E+00
      0.00000000000000E+00   0.00000000000000E+00   0.00000000000000E+00   0.00000000000000E+00   0.00000000000000E+00
      3.59250295598071E-18   0.00000000000000E+00   0.00000000000000E+00   0.00000000000000E+00   0.00000000000000E+00
      2.94484776486600E-19  -6.06378332500350E-34   2.94484776486600E-19  -1.50782148929184E-17   7.62837037636428E-02
      7.62837035061486E-02   0.00000000000000E+00   0.00000000000000E+00   1.32049673936935E-09   4.13876389457749E-35
      1.32049673936935E-09   5.83191828546747E-18
      9.77838160249876E-02
      0.00000000000000E+00   2.60814232429483E-10   0.00000000000000E+00   0.00000000000000E+00  -1.34289361347864E-09
      5.81109480755048E-34  -1.34289361347864E-09   5.65111347065766E-18   0.00000000000000E+00   0.00000000000000E+00
      0.00000000000000E+00   0.00000000000000E+00   0.00000000000000E+00   0.00000000000000E+00   0.00000000000000E+00
      3.49190387228053E-18   0.00000000000000E+00   0.00000000000000E+00   0.00000000000000E+00   0.00000000000000E+00
      3.55398126839941E-19  -6.13661780295493E-34   3.55398126839940E-19  -1.50774324270764E-17   8.40940817814893E-02
      8.40940815198637E-02   0.00000000000000E+00   0.00000000000000E+00   1.34289361312324E-09   3.25522995404457E-35
      1.34289361312324E-09   5.93441508413823E-18
      1.07652743287848E-01
      0.00000000000000E+00   2.65385969544515E-10   0.00000000000000E+00   0.00000000000000E+00  -1.36743046209357E-09
      5.57810989965076E-34  -1.36743046209357E-09   5.64820203837410E-18   0.00000000000000E+00   0.00000000000000E+00
      0.00000000000000E+00   0.00000000000000E+00   0.00000000000000E+00   0.00000000000000E+00   0.00000000000000E+00
      3.38264618978524E-18   0.00000000000000E+00   0.00000000000000E+00   0.00000000000000E+00   0.00000000000000E+00
     -1.24784002312276E-19  -5.82049420552153E-34  -1.24784002312277E-19  -1.50767967533685E-17   9.25813592275492E-02
      9.25813589614015E-02   0.00000000000000E+00   0.00000000000000E+00   1.36743046221835E-09   2.42384305870754E-35
      1.36743046221835E-09   6.04594852520914E-18
      1.17652743287848E-01
      0.00000000000000E+00   2.70039769532916E-10   0.00000000000000E+00   0.00000000000000E+00  -1.39243631461304E-09
      5.60896528922694E-34  -1.39243631461304E-09   5.64525294289460E-18   0.00000000000000E+00   0.00000000000000E+00
      0.00000000000000E+00   0.00000000000000E+00   0.00000000000000E+00   0.00000000000000E+00   0.00000000000000E+00
      3.27199504258183E-18   0.00000000000000E+00   0.00000000000000E+00   0.00000000000000E+00   0.00000000000000E+00
     -4.22784339949426E-20  -5.78144898205789E-34  -4.22784339949431E-20  -1.50763628186009E-17   1.01181359227549E-01
      1.01181358956805E-01   0.00000000000000E+00   0.00000000000000E+00   1.39243631465531E-09   1.72483692830948E-35
      1.39243631465531E-09   6.15911483312446E-18
      1.27652743287848E-01
      0.00000000000000E+00   2.74721212391268E-10   0.00000000000000E+00   0.00000000000000E+00  -1.41762215444265E-09
      5.87911590406833E-34  -1.41762215444265E-09   5.64230477265889E-18   0.00000000000000E+00   0.00000000000000E+00
      0.00000000000000E+00   0.00000000000000E+00   0.00000000000000E+00   0.00000000000000E+00   0.00000000000000E+00
      3.16139630892484E-18   0.00000000000000E+00   0.00000000000000E+00   0.00000000000000E+00   0.00000000000000E+00
     -2.69183588272697E-19  -6.01459162672033E-34  -2.69183588272697E-19  -1.50761236971710E-17   1.09781359227549E-01
      1.09781358952190E-01   0.00000000000000E+00   0.00000000000000E+00   1.41762215471184E-09   1.35475722651991E-35
      1.41762215471184E-09   6.27242261558732E-18
      1.37652743287848E-01
      0.00000000000000E+00   2.79440162244345E-10   0.00000000000000E+00   0.00000000000000E+00  -1.44303910696337E-09
      5.63691475422973E-34  -1.44303910696337E-09   5.63935745345259E-18   0.00000000000000E+00   0.00000000000000E+00
      0.00000000000000E+00   0.00000000000000E+00   0.00000000000000E+00   0.00000000000000E+00   0.00000000000000E+00
      3.05084510536812E-18   0.00000000000000E+00   0.00000000000000E+00   0.00000000000000E+00   0.00000000000000E+00
     -1.75449459232502E-19  -5.73247178369900E-34  -1.75449459232502E-19  -1.50760642335430E-17   1.18381359227549E-01
      1.18381358947543E-01   0.00000000000000E+00   0.00000000000000E+00   1.44303910713882E-09   9.55570294692726E-36
      1.44303910713882E-09   6.38586167472232E-18
      1.47652743287848E-01
      0.00000000000000E+00   2.84203412408102E-10   0.00000000000000E+00   0.00000000000000E+00  -1.46872138201853E-09
      5.96853314749119E-34  -1.46872138201853E-09   5.63641092213229E-18   0.00000000000000E+00   0.00000000000000E+00
      0.00000000000000E+00   0.00000000000000E+00   0.00000000000000E+00   0.00000000000000E+00   0.00000000000000E+00
      2.94033719944983E-18   0.00000000000000E+00   0.00000000000000E+00   0.00000000000000E+00   0.00000000000000E+00
     -4.03123004436894E-21  -6.03952956917284E-34  -4.03123004436954E-21  -1.50761707785261E-17   1.26981359227549E-01
      1.26981358942847E-01   0.00000000000000E+00   0.00000000000000E+00   1.46872138202256E-09   7.09964216816422E-36
      1.46872138202256E-09   6.49942265694398E-18
      1.57652743287848E-01
      0.00000000000000E+00   2.89014278078227E-10   0.00000000000000E+00   0.00000000000000E+00  -1.49468560223480E-09
      5.88401418960422E-34  -1.49468560223480E-09   5.63346512234373E-18   0.00000000000000E+00   0.00000000000000E+00
      0.00000000000000E+00   0.00000000000000E+00   0.00000000000000E+00   0.00000000000000E+00   0.00000000000000E+00
      2.82986886919006E-18   0.00000000000000E+00   0.00000000000000E+00   0.00000000000000E+00   0.00000000000000E+00
      2.06174367818896E-19  -5.93771073359086E-34   2.06174367818895E-19  -1.50764309551496E-17   1.35581359227549E-01
      1.35581358938098E-01   0.00000000000000E+00   0.00000000000000E+00   1.49468560202863E-09   5.36965439866454E-36
      1.49468560202863E-09   6.61309696361584E-18
      1.67652743287848E-01
      0.00000000000000E+00   2.93873918095708E-10   0.00000000000000E+00   0.00000000000000E+00  -1.52093734048859E-09
      5.69440657971286E-34  -1.52093734048859E-09   5.63052000258441E-18   0.00000000000000E+00   0.00000000000000E+00
      0.00000000000000E+00   0.00000000000000E+00   0.00000000000000E+00   0.00000000000000E+00   0.00000000000000E+00
      2.71943680119460E-18   0.00000000000000E+00   0.00000000000000E+00   0.00000000000000E+00   0.00000000000000E+00
      9.44473175036067E-20  -5.73382827090749E-34   9.44473175036062E-20  -1.50768334795906E-17   1.44181359227549E-01
      1.44181358933296E-01   0.00000000000000E+00   0.00000000000000E+00   1.52093734039414E-09   3.94216911946290E-36
      1.52093734039414E-09   6.72687667581160E-18
      1.77652743287848E-01
      0.00000000000000E+00   2.98782326869997E-10   0.00000000000000E+00   0.00000000000000E+00  -1.54747638746354E-09
      5.63490545168462E-34  -1.54747638746354E-09   5.62757551561470E-18   0.00000000000000E+00   0.00000000000000E+00
      0.00000000000000E+00   0.00000000000000E+00   0.00000000000000E+00   0.00000000000000E+00   0.00000000000000E+00
      2.60903803059705E-18   0.00000000000000E+00   0.00000000000000E+00   0.00000000000000E+00   0.00000000000000E+00
      8.50836904299092E-20  -5.66488201616693E-34   8.50836904299086E-20  -1.50773680364443E-17   1.52781359227549E-01
      1.52781358928445E-01   0.00000000000000E+00   0.00000000000000E+00   1.54747638737845E-09   2.99765644823036E-36
      1.54747638737845E-09   6.84075449023254E-18
      1.87652743287848E-01
      0.00000000000000E+00   3.03738968507018E-10   0.00000000000000E+00   0.00000000000000E+00  -1.57430008902006E-09