DF-ISE text

Info {
  version   = 1.0
  type      = xyplot
  datasets  = [
    "time"
    "source OuterVoltage" "source InnerVoltage" "source QuasiFermiPotential" "source DisplacementCurrent" "source eCurrent"
    "source hCurrent" "source TotalCurrent" "source Charge" "gate OuterVoltage" "gate InnerVoltage"
    "gate QuasiFermiPotential" "gate DisplacementCurrent" "gate eCurrent" "gate hCurrent" "gate TotalCurrent"
    "gate Charge" "substrate OuterVoltage" "substrate InnerVoltage" "substrate QuasiFermiPotential" "substrate DisplacementCurrent"
    "substrate eCurrent" "substrate hCurrent" "substrate TotalCurrent" "substrate Charge" "drain OuterVoltage"
    "drain InnerVoltage" "drain QuasiFermiPotential" "drain DisplacementCurrent" "drain eCurrent" "drain hCurrent"
    "drain TotalCurrent" "drain Charge" ]
  functions = [
    Time
    OuterVoltage InnerVoltage QuasiFermiPotential DisplacementCurrent eCurrent
    hCurrent TotalCurrent Charge OuterVoltage InnerVoltage
    QuasiFermiPotential DisplacementCurrent eCurrent hCurrent TotalCurrent
    Charge OuterVoltage InnerVoltage QuasiFermiPotential DisplacementCurrent
    eCurrent hCurrent TotalCurrent Charge OuterVoltage
    InnerVoltage QuasiFermiPotential DisplacementCurrent eCurrent hCurrent
    TotalCurrent Charge ]
}

Data {
      0.00000000000000E+00
      0.00000000000000E+00   0.00000000000000E+00   0.00000000000000E+00   0.00000000000000E+00  -1.27553249518716E-21
     -1.24185729398707E-34  -1.27553249518728E-21   3.66999083453635E-18   0.00000000000000E+00   0.00000000000000E+00
      0.00000000000000E+00   0.00000000000000E+00   0.00000000000000E+00   0.00000000000000E+00   0.00000000000000E+00
      2.42458697838357E-18   0.00000000000000E+00   0.00000000000000E+00   0.00000000000000E+00   0.00000000000000E+00
      1.65117012383920E-21   3.34692008980137E-34   1.65117012383953E-21  -9.09576964189238E-18   0.00000000000000E+00
      0.00000000000000E+00   0.00000000000000E+00   0.00000000000000E+00  -3.75637628652045E-22  -2.10506279581430E-34
     -3.75637628652255E-22   3.00119182897242E-18
      0.00000000000000E+00
      0.00000000000000E+00   0.00000000000000E+00   0.00000000000000E+00   0.00000000000000E+00  -3.19671225769889E-20
     -1.23242290450581E-34  -3.19671225769891E-20   3.66856689230713E-18   0.00000000000000E+00   0.00000000000000E+00
      0.00000000000000E+00   0.00000000000000E+00   0.00000000000000E+00   0.00000000000000E+00   0.00000000000000E+00
      2.41949935334248E-18   0.00000000000000E+00   0.00000000000000E+00   0.00000000000000E+00   0.00000000000000E+00
      3.65928421450671E-20   3.33697282461867E-34   3.65928421450674E-20  -9.08823879393460E-18   0.00000000000000E+00
      0.00000000000000E+00   0.00000000000000E+00   0.00000000000000E+00  -4.62571956807820E-21  -2.10454992011286E-34
     -4.62571956807841E-21   3.00017254828498E-18
      1.00000000000000E-03
      0.00000000000000E+00   2.39181265985952E-12   0.00000000000000E+00   0.00000000000000E+00  -9.54499650071735E-12
     -1.11780588409042E-34  -9.54499650071735E-12   3.66855418500424E-18   0.00000000000000E+00   0.00000000000000E+00
      0.00000000000000E+00   0.00000000000000E+00   0.00000000000000E+00   0.00000000000000E+00   0.00000000000000E+00
      2.41903379928865E-18   0.00000000000000E+00   0.00000000000000E+00   0.00000000000000E+00   0.00000000000000E+00
     -6.27509283506161E-20   3.21294093843416E-34  -6.27509283506158E-20  -9.08822026676693E-18   5.00000000000000E-05
      4.99999976032140E-05   0.00000000000000E+00   0.00000000000000E+00   9.54499656346828E-12  -2.09513505434375E-34
      9.54499656346828E-12   3.00063228247404E-18
      2.09333333333333E-03
      0.00000000000000E+00   4.99876790861034E-12   0.00000000000000E+00   0.00000000000000E+00  -1.99485578576979E-11
     -1.13443007801237E-34  -1.99485578576979E-11   3.66854029192902E-18   0.00000000000000E+00   0.00000000000000E+00
      0.00000000000000E+00   0.00000000000000E+00   0.00000000000000E+00   0.00000000000000E+00   0.00000000000000E+00
      2.41852480244037E-18   0.00000000000000E+00   0.00000000000000E+00   0.00000000000000E+00   0.00000000000000E+00
      1.78101229492653E-20   3.05548347873099E-34   1.78101229492656E-20  -9.08820003057715E-18   1.04666666666667E-04
      1.04666661657508E-04   0.00000000000000E+00   0.00000000000000E+00   1.99485578398878E-11  -1.92105340071862E-34
      1.99485578398878E-11   3.00113493620776E-18
      3.29600000000000E-03
      0.00000000000000E+00   7.85626133885813E-12   0.00000000000000E+00   0.00000000000000E+00  -3.13519981726464E-11
     -1.01140251115032E-34  -3.13519981726464E-11   3.66852500984060E-18   0.00000000000000E+00   0.00000000000000E+00
      0.00000000000000E+00   0.00000000000000E+00   0.00000000000000E+00   0.00000000000000E+00   0.00000000000000E+00
      2.41796491665698E-18   0.00000000000000E+00   0.00000000000000E+00   0.00000000000000E+00   0.00000000000000E+00
      1.26435703766334E-20   3.02478382373461E-34   1.26435703766337E-20  -9.08817779509697E-18   1.64800000000000E-04
      1.64799992127394E-04   0.00000000000000E+00   0.00000000000000E+00   3.13519981600028E-11  -2.01338131258429E-34
      3.13519981600028E-11   3.00168786859940E-18
      4.61893333333333E-03
      0.00000000000000E+00   1.09870002783330E-11   0.00000000000000E+00   0.00000000000000E+00  -4.38457745469762E-11
     -1.09111635268253E-34  -4.38457745469762E-11   3.66850819990052E-18   0.00000000000000E+00   0.00000000000000E+00
      0.00000000000000E+00   0.00000000000000E+00   0.00000000000000E+00   0.00000000000000E+00   0.00000000000000E+00
      2.41734905528998E-18   0.00000000000000E+00   0.00000000000000E+00   0.00000000000000E+00   0.00000000000000E+00
      1.88355393946662E-20   3.06841878723659E-34   1.88355393946665E-20  -9.08815336548158E-18   2.30946666666667E-04
      2.30946655656824E-04   0.00000000000000E+00   0.00000000000000E+00   4.38457745281407E-11  -1.97730243455407E-34
      4.38457745281407E-11   3.00229611029107E-18
      6.07416000000000E-03
      0.00000000000000E+00   1.44154245545594E-11   0.00000000000000E+00   0.00000000000000E+00  -5.75275463478323E-11
     -9.75148280577571E-35  -5.75275463478323E-11   3.66848970939939E-18   0.00000000000000E+00   0.00000000000000E+00
      0.00000000000000E+00   0.00000000000000E+00   0.00000000000000E+00   0.00000000000000E+00   0.00000000000000E+00
      2.41667162349321E-18   0.00000000000000E+00   0.00000000000000E+00   0.00000000000000E+00   0.00000000000000E+00
      9.36122897463904E-19   3.12484030121747E-34   9.36122897463904E-19  -9.08812652846114E-18   3.03708000000000E-04
      3.03707985554607E-04   0.00000000000000E+00   0.00000000000000E+00   5.75275454117094E-11  -2.14969202063990E-34
      5.75275454117094E-11   3.00296519556855E-18
      7.67490933333333E-03
      0.00000000000000E+00   1.81678930366518E-11   0.00000000000000E+00   0.00000000000000E+00  -7.25024293903541E-11
     -1.05592350797090E-34  -7.25024293903541E-11   3.66846937037267E-18   0.00000000000000E+00   0.00000000000000E+00
      0.00000000000000E+00   0.00000000000000E+00   0.00000000000000E+00   0.00000000000000E+00   0.00000000000000E+00
      2.41592646749983E-18   0.00000000000000E+00   0.00000000000000E+00   0.00000000000000E+00   0.00000000000000E+00
      6.08341252512712E-20   3.15321903957872E-34   6.08341252512715E-20  -9.08809705071854E-18   3.83745466666667E-04
      3.83745448461018E-04   0.00000000000000E+00   0.00000000000000E+00   7.25024293295200E-11  -2.09729553160782E-34
      7.25024293295200E-11   3.00370121284604E-18
      9.43573360000000E-03
      0.00000000000000E+00   2.22726733669586E-11   0.00000000000000E+00   0.00000000000000E+00  -8.88832438655292E-11
     -7.55726857404449E-35  -8.88832438655292E-11   3.66844699807835E-18   0.00000000000000E+00   0.00000000000000E+00
      0.00000000000000E+00   0.00000000000000E+00   0.00000000000000E+00   0.00000000000000E+00   0.00000000000000E+00
      2.41510681884675E-18   0.00000000000000E+00   0.00000000000000E+00   0.00000000000000E+00   0.00000000000000E+00
      1.10304806842681E-19   2.89968313741137E-34   1.10304806842681E-19  -9.08806467714926E-18   4.71786680000000E-04
      4.71786657681051E-04   0.00000000000000E+00   0.00000000000000E+00   8.88832437552243E-11  -2.14395628000692E-34
      8.88832437552243E-11   3.00451086022417E-18
      1.13726402933333E-02
      0.00000000000000E+00   2.67600161214093E-11   0.00000000000000E+00   0.00000000000000E+00  -1.06790685225168E-10
     -1.00967436280208E-34  -1.06790685225168E-10   3.66842238932328E-18   0.00000000000000E+00   0.00000000000000E+00
      0.00000000000000E+00   0.00000000000000E+00   0.00000000000000E+00   0.00000000000000E+00   0.00000000000000E+00
      2.41420523304574E-18   0.00000000000000E+00   0.00000000000000E+00   0.00000000000000E+00   0.00000000000000E+00
      1.31920941648396E-19   2.93635641334176E-34   1.31920941648397E-19  -9.08802912900295E-18   5.68632014666667E-04
      5.68631987851069E-04   0.00000000000000E+00   0.00000000000000E+00   1.06790685093247E-10  -1.92668205053967E-34
      1.06790685093247E-10   3.00540150663393E-18
      1.35032376560000E-02
      0.00000000000000E+00   3.16621662187983E-11   0.00000000000000E+00   0.00000000000000E+00  -1.26353419987994E-10
     -1.25704177700412E-34  -1.26353419987994E-10   3.66839532062280E-18   0.00000000000000E+00   0.00000000000000E+00
      0.00000000000000E+00   0.00000000000000E+00   0.00000000000000E+00   0.00000000000000E+00   0.00000000000000E+00
      2.41321352215026E-18   0.00000000000000E+00   0.00000000000000E+00   0.00000000000000E+00   0.00000000000000E+00
      1.40163824223825E-19   3.39061671398879E-34   1.40163824223825E-19  -9.08799010190428E-18   6.75161882800000E-04
      6.75161851072104E-04   0.00000000000000E+00   0.00000000000000E+00   1.26353419847831E-10  -2.13357493698467E-34
      1.26353419847831E-10   3.00638125913120E-18
      1.58468947549333E-02
      0.00000000000000E+00   3.70133560752149E-11   0.00000000000000E+00   0.00000000000000E+00  -1.47708059441672E-10
     -1.15119339358689E-34  -1.47708059441672E-10   3.66836554617726E-18   0.00000000000000E+00   0.00000000000000E+00
      0.00000000000000E+00   0.00000000000000E+00   0.00000000000000E+00   0.00000000000000E+00   0.00000000000000E+00
      2.41212268061218E-18   0.00000000000000E+00   0.00000000000000E+00   0.00000000000000E+00   0.00000000000000E+00
      2.12871599665550E-19   3.17459020993008E-34   2.12871599665551E-19  -9.08794726375290E-18   7.92344737746667E-04
      7.92344700656496E-04   0.00000000000000E+00   0.00000000000000E+00   1.47708059228800E-10  -2.02339681634319E-34
      1.47708059228800E-10   3.00745903696343E-18
      1.84249175637600E-02
      0.00000000000000E+00   4.28497873491881E-11   0.00000000000000E+00   0.00000000000000E+00  -1.70998975948003E-10
     -1.03790475795588E-34  -1.70998975948003E-10   3.66833279564753E-18   0.00000000000000E+00   0.00000000000000E+00
      0.00000000000000E+00   0.00000000000000E+00   0.00000000000000E+00   0.00000000000000E+00   0.00000000000000E+00
      2.41092280376792E-18   0.00000000000000E+00   0.00000000000000E+00   0.00000000000000E+00   0.00000000000000E+00
      3.03798760810707E-19   3.04282959198943E-34   3.03798760810707E-19  -9.08790025251183E-18   9.21245878188001E-04
      9.21245835249328E-04   0.00000000000000E+00   0.00000000000000E+00   1.70998975644204E-10  -2.00492483403355E-34
      1.70998975644204E-10   3.00864465309642E-18
      2.12607426534693E-02
      0.00000000000000E+00   4.92094780572798E-11   0.00000000000000E+00   0.00000000000000E+00  -1.96377925568208E-10
     -1.13639368705423E-34  -1.96377925568208E-10   3.66829677170922E-18   0.00000000000000E+00   0.00000000000000E+00
      0.00000000000000E+00   0.00000000000000E+00   0.00000000000000E+00   0.00000000000000E+00   0.00000000000000E+00
      2.40960299822142E-18   0.00000000000000E+00   0.00000000000000E+00   0.00000000000000E+00   0.00000000000000E+00
      4.26281091219843E-19   3.31091338447271E-34   4.26281091219843E-19  -9.08784867388669E-18   1.06303713267347E-03
      1.06303708336197E-03   0.00000000000000E+00   0.00000000000000E+00   1.96377925141927E-10  -2.17451969741849E-34
      1.96377925141927E-10   3.00994890395607E-18
      2.43801502521496E-02
      0.00000000000000E+00   5.61321678770264E-11   0.00000000000000E+00   0.00000000000000E+00  -2.24003432345987E-10
     -1.05663417503438E-34  -2.24003432345987E-10   3.66825714736425E-18   0.00000000000000E+00   0.00000000000000E+00
      0.00000000000000E+00   0.00000000000000E+00   0.00000000000000E+00   0.00000000000000E+00   0.00000000000000E+00
      2.40815128332502E-18   0.00000000000000E+00   0.00000000000000E+00   0.00000000000000E+00   0.00000000000000E+00
      4.41168079042295E-18   3.05318805573715E-34   4.41168079042295E-18  -9.08779209890903E-18   1.21900751260748E-03
      1.21900745635900E-03   0.00000000000000E+00   0.00000000000000E+00   2.24003427934307E-10  -1.99655388070277E-34
      2.24003427934307E-10   3.01138366821976E-18
      2.78114986106979E-02
      0.00000000000000E+00   6.36590568743321E-11   0.00000000000000E+00   0.00000000000000E+00  -2.54039863253968E-10
     -1.01860687353430E-34  -2.54039863253968E-10   3.66821356298527E-18   0.00000000000000E+00   0.00000000000000E+00
      0.00000000000000E+00   0.00000000000000E+00   0.00000000000000E+00   0.00000000000000E+00   0.00000000000000E+00
      2.40655448287790E-18   0.00000000000000E+00   0.00000000000000E+00   0.00000000000000E+00   0.00000000000000E+00
      9.32400371277956E-18   2.84835398439467E-34   9.32400371277956E-18  -9.08773006143945E-18   1.39057493053490E-03
      1.39057486674400E-03   0.00000000000000E+00   0.00000000000000E+00   2.54039853929964E-10  -1.82974711086037E-34
      2.54039853929964E-10   3.01296201557627E-18
      3.15859818051010E-02
      0.00000000000000E+00   7.18325008755833E-11   0.00000000000000E+00   0.00000000000000E+00  -2.86656144073637E-10
     -1.09324909522151E-34  -2.86656144073637E-10   3.66816562306715E-18   0.00000000000000E+00   0.00000000000000E+00
      0.00000000000000E+00   0.00000000000000E+00   0.00000000000000E+00   0.00000000000000E+00   0.00000000000000E+00
      2.40479810608279E-18   0.00000000000000E+00   0.00000000000000E+00   0.00000000000000E+00   0.00000000000000E+00
      2.84335081071060E-18   3.03134625160729E-34   2.84335081071060E-18  -9.08766205562288E-18   1.57929909025505E-03
      1.57929901827388E-03   0.00000000000000E+00   0.00000000000000E+00   2.86656141230286E-10  -1.93809715638578E-34
      2.86656141230286E-10   3.01469832647295E-18
      3.57379133189445E-02
      0.00000000000000E+00   8.06955453983915E-11   0.00000000000000E+00   0.00000000000000E+00  -3.22024094606814E-10
     -1.13704767552695E-34  -3.22024094606814E-10   3.66811289265621E-18   0.00000000000000E+00   0.00000000000000E+00
      0.00000000000000E+00   0.00000000000000E+00   0.00000000000000E+00   0.00000000000000E+00   0.00000000000000E+00
      2.40286621669755E-18   0.00000000000000E+00   0.00000000000000E+00   0.00000000000000E+00   0.00000000000000E+00
     -7.35763194987767E-19   3.20192709030291E-34  -7.35763194987767E-19  -9.08758753331977E-18   1.78689566594722E-03
      1.78689558508475E-03   0.00000000000000E+00   0.00000000000000E+00   3.22024095342577E-10  -2.06487941477597E-34
      3.22024095342577E-10   3.01660842396600E-18
      4.03050379841723E-02
      0.00000000000000E+00   9.02914521663026E-11   0.00000000000000E+00   0.00000000000000E+00  -3.60316138691676E-10
     -7.75553763968789E-35  -3.60316138691676E-10   3.66805489342612E-18   0.00000000000000E+00   0.00000000000000E+00
      0.00000000000000E+00   0.00000000000000E+00   0.00000000000000E+00   0.00000000000000E+00   0.00000000000000E+00
      2.40074128922384E-18   0.00000000000000E+00   0.00000000000000E+00   0.00000000000000E+00   0.00000000000000E+00
      2.53668161955055E-18   2.69516500792333E-34   2.53668161955055E-18  -9.08750590156289E-18   2.01525189920861E-03
      2.01525180873051E-03   0.00000000000000E+00   0.00000000000000E+00   3.60316136154994E-10  -1.91961124395455E-34
      3.60316136154994E-10   3.01870971891293E-18
      4.53288751159228E-02
      0.00000000000000E+00   1.00662894183801E-10   0.00000000000000E+00   0.00000000000000E+00  -4.01702565803634E-10
     -9.69266821156427E-35  -4.01702565803634E-10   3.66799109936472E-18   0.00000000000000E+00   0.00000000000000E+00
      0.00000000000000E+00   0.00000000000000E+00   0.00000000000000E+00   0.00000000000000E+00   0.00000000000000E+00
      2.39840405085715E-18   0.00000000000000E+00   0.00000000000000E+00   0.00000000000000E+00   0.00000000000000E+00
      3.61646118748531E-18   2.92590812089327E-34   3.61646118748531E-18  -9.08741652009105E-18   2.26644375579614E-03
      2.26644365492531E-03   0.00000000000000E+00   0.00000000000000E+00   4.01702562187173E-10  -1.95664129973685E-34
      4.01702562187173E-10   3.02102136986916E-18
      5.08550959608485E-02
      0.00000000000000E+00   1.11851163931994E-10   0.00000000000000E+00   0.00000000000000E+00  -4.46347993807915E-10
     -1.08336754544700E-34  -4.46347993807915E-10   3.66792093203489E-18   0.00000000000000E+00   0.00000000000000E+00
      0.00000000000000E+00   0.00000000000000E+00   0.00000000000000E+00   0.00000000000000E+00   0.00000000000000E+00
      2.39583330780465E-18   0.00000000000000E+00   0.00000000000000E+00   0.00000000000000E+00   0.00000000000000E+00
      5.21004029353949E-18   2.90701815158087E-34   5.21004029353949E-18  -9.08731869903759E-18   2.54275479804242E-03
      2.54275468596040E-03   0.00000000000000E+00   0.00000000000000E+00   4.46347988597874E-10  -1.82365060613387E-34
      4.46347988597874E-10   3.02356445919807E-18
      5.69339388902666E-02
      0.00000000000000E+00   1.23895055258762E-10   0.00000000000000E+00   0.00000000000000E+00  -4.94407133068828E-10
     -1.18161525025613E-34  -4.94407133068828E-10   3.66784375536639E-18   0.00000000000000E+00   0.00000000000000E+00
      0.00000000000000E+00   0.00000000000000E+00   0.00000000000000E+00   0.00000000000000E+00   0.00000000000000E+00
      2.39300575443764E-18   0.00000000000000E+00   0.00000000000000E+00   0.00000000000000E+00   0.00000000000000E+00
      4.89765028064665E-18   2.98389622170745E-34   4.89765028064665E-18  -9.08721169686351E-18   2.84669694451333E-03
      2.84669682036276E-03   0.00000000000000E+00   0.00000000000000E+00   4.94407128171178E-10  -1.80228097145133E-34
      4.94407128171178E-10   3.02636218705946E-18
      6.36206661126266E-02
      0.00000000000000E+00   1.36829634028400E-10   0.00000000000000E+00   0.00000000000000E+00  -5.46019680590348E-10
     -1.05487933512170E-34  -5.46019680590348E-10   3.66775886993404E-18   0.00000000000000E+00   0.00000000000000E+00
      0.00000000000000E+00   0.00000000000000E+00   0.00000000000000E+00   0.00000000000000E+00   0.00000000000000E+00
      2.38989576359587E-18   0.00000000000000E+00   0.00000000000000E+00   0.00000000000000E+00   0.00000000000000E+00
      1.58343578588739E-17   2.82132220937630E-34   1.58343578588739E-17  -9.08709471863996E-18   3.18103330563133E-03
      3.18103316851978E-03   0.00000000000000E+00   0.00000000000000E+00   5.46019664755990E-10  -1.76644287425460E-34
      5.46019664755990E-10   3.02944008511002E-18
      7.09760660572226E-02
      0.00000000000000E+00   1.50684635687660E-10   0.00000000000000E+00   0.00000000000000E+00  -6.01304240475669E-10
     -1.10963141557716E-34  -6.01304240475669E-10   3.66766550667094E-18   0.00000000000000E+00   0.00000000000000E+00
      0.00000000000000E+00   0.00000000000000E+00   0.00000000000000E+00   0.00000000000000E+00   0.00000000000000E+00
      2.38647515621861E-18   0.00000000000000E+00   0.00000000000000E+00   0.00000000000000E+00   0.00000000000000E+00
      2.00224300694907E-17   2.89890219905573E-34   2.00224300694907E-17  -9.08696691484856E-18   3.54880330286113E-03
      3.54880315186631E-03   0.00000000000000E+00   0.00000000000000E+00   6.01304220453239E-10  -1.78927078347857E-34
      6.01304220453239E-10   3.03282625195902E-18
      7.90670059962782E-02
      0.00000000000000E+00   1.65482834308584E-10   0.00000000000000E+00   0.00000000000000E+00  -6.60351368242681E-10
     -1.17685724425632E-34  -6.60351368242681E-10   3.66756281996128E-18   0.00000000000000E+00   0.00000000000000E+00
      0.00000000000000E+00   0.00000000000000E+00   0.00000000000000E+00   0.00000000000000E+00   0.00000000000000E+00
      2.38271294824374E-18   0.00000000000000E+00   0.00000000000000E+00   0.00000000000000E+00   0.00000000000000E+00
      2.49786623995895E-17   3.05887920067639E-34   2.49786623995895E-17  -9.08682738080377E-18   3.95335029981391E-03
      3.95335013399078E-03   0.00000000000000E+00   0.00000000000000E+00   6.60351343264019E-10  -1.88202195642008E-34
      6.60351343264019E-10   3.03655161259877E-18
      8.79670399292394E-02
      0.00000000000000E+00   1.81237896502161E-10   0.00000000000000E+00   0.00000000000000E+00  -7.23215416305368E-10
     -1.18417552635204E-34  -7.23215416305368E-10   3.66744988005413E-18   0.00000000000000E+00   0.00000000000000E+00
      0.00000000000000E+00   0.00000000000000E+00   0.00000000000000E+00   0.00000000000000E+00   0.00000000000000E+00
      2.37857507264470E-18   0.00000000000000E+00   0.00000000000000E+00   0.00000000000000E+00   0.00000000000000E+00
      4.62732300622657E-17   2.88634022047417E-34   4.62732300622657E-17  -9.08667515702959E-18   4.39835199646197E-03
      4.39835181485179E-03   0.00000000000000E+00   0.00000000000000E+00   7.23215370032137E-10  -1.70216469412213E-34
      7.23215370032137E-10   3.04065020433077E-18
      9.77570772554967E-02
      0.00000000000000E+00   1.97952181137884E-10   0.00000000000000E+00   0.00000000000000E+00  -7.89905604036753E-10
     -1.33375845193083E-34  -7.89905604036753E-10   3.66732566472864E-18   0.00000000000000E+00   0.00000000000000E+00
      0.00000000000000E+00   0.00000000000000E+00   0.00000000000000E+00   0.00000000000000E+00   0.00000000000000E+00
      2.37402407405983E-18   0.00000000000000E+00   0.00000000000000E+00   0.00000000000000E+00   0.00000000000000E+00
      4.66578272813724E-17   2.93713581286467E-34   4.66578272813724E-17  -9.08650923068392E-18   4.88785386277484E-03
      4.88785366441652E-03   0.00000000000000E+00   0.00000000000000E+00   7.89905557378926E-10  -1.60337736093384E-34
      7.89905557378926E-10   3.04515949189547E-18
      1.07757077255497E-01
      0.00000000000000E+00   2.14377657430369E-10   0.00000000000000E+00   0.00000000000000E+00  -8.55442108478146E-10
     -8.68791096580983E-35  -8.55442108478146E-10   3.66719880532099E-18   0.00000000000000E+00   0.00000000000000E+00
      0.00000000000000E+00   0.00000000000000E+00   0.00000000000000E+00   0.00000000000000E+00   0.00000000000000E+00
      2.36937618544538E-18   0.00000000000000E+00   0.00000000000000E+00   0.00000000000000E+00   0.00000000000000E+00
      5.34326012531592E-17   2.58422117216956E-34   5.34326012531592E-17  -9.08634137886367E-18   5.38785386277483E-03
      5.38785364795789E-03   0.00000000000000E+00   0.00000000000000E+00   8.55442055045545E-10  -1.71543007558858E-34
      8.55442055045545E-10   3.04976638809733E-18
      1.17757077255497E-01
      0.00000000000000E+00   2.30169181414153E-10   0.00000000000000E+00   0.00000000000000E+00  -9.18447926107131E-10
     -1.12046178778888E-34  -9.18447926107131E-10   3.66707196584652E-18   0.00000000000000E+00   0.00000000000000E+00
      0.00000000000000E+00   0.00000000000000E+00   0.00000000000000E+00   0.00000000000000E+00   0.00000000000000E+00
      2.36472901188276E-18   0.00000000000000E+00   0.00000000000000E+00   0.00000000000000E+00   0.00000000000000E+00
      7.32675365722464E-17   2.77258983702218E-34   7.32675365722464E-17  -9.08617516627921E-18   5.88785386277483E-03
      5.88785363213459E-03   0.00000000000000E+00   0.00000000000000E+00   9.18447852839595E-10  -1.65212804923329E-34
      9.18447852839595E-10   3.05437418854991E-18
      1.27757077255497E-01
      0.00000000000000E+00   2.45346913864750E-10   0.00000000000000E+00   0.00000000000000E+00  -9.79003563209440E-10
     -9.63390650928489E-35  -9.79003563209440E-10   3.66694514611454E-18   0.00000000000000E+00   0.00000000000000E+00
      0.00000000000000E+00   0.00000000000000E+00   0.00000000000000E+00   0.00000000000000E+00   0.00000000000000E+00
      2.36008254762020E-18   0.00000000000000E+00   0.00000000000000E+00   0.00000000000000E+00   0.00000000000000E+00
      5.56522762257228E-17   2.61950126303998E-34   5.56522762257228E-17  -9.08601058177759E-18   6.38785386277483E-03
      6.38785361692640E-03   0.00000000000000E+00   0.00000000000000E+00   9.79003507557164E-10  -1.65611061211149E-34
      9.79003507557164E-10   3.05898288804284E-18
      1.37757077255497E-01
      0.00000000000000E+00   2.59930755425994E-10   0.00000000000000E+00   0.00000000000000E+00  -1.03718859270443E-09
     -1.04948772310314E-34  -1.03718859270443E-09   3.66681834593438E-18   0.00000000000000E+00   0.00000000000000E+00
      0.00000000000000E+00   0.00000000000000E+00   0.00000000000000E+00   0.00000000000000E+00   0.00000000000000E+00
      2.35543678696969E-18   0.00000000000000E+00   0.00000000000000E+00   0.00000000000000E+00   0.00000000000000E+00
      5.52295977255152E-17   2.83173709557541E-34   5.52295977255152E-17  -9.08584761430616E-18   6.88785386277483E-03
      6.88785360231337E-03   0.00000000000000E+00   0.00000000000000E+00   1.03718853747483E-09  -1.78224937247227E-34
      1.03718853747483E-09   3.06359248140211E-18
      1.47757077255497E-01
      0.00000000000000E+00   2.73940319227762E-10   0.00000000000000E+00   0.00000000000000E+00  -1.09308140621006E-09
     -9.07940649325787E-35  -1.09308140621006E-09   3.66669156511298E-18   0.00000000000000E+00   0.00000000000000E+00
      0.00000000000000E+00   0.00000000000000E+00   0.00000000000000E+00   0.00000000000000E+00   0.00000000000000E+00
      2.35079172424847E-18   0.00000000000000E+00   0.00000000000000E+00   0.00000000000000E+00   0.00000000000000E+00
      5.11406601900964E-17   2.57371534856487E-34   5.11406601900964E-17  -9.08568625283321E-18   7.38785386277483E-03
      7.38785358827585E-03   0.00000000000000E+00   0.00000000000000E+00   1.09308135506940E-09  -1.66577469923908E-34
      1.09308135506940E-09   3.06820296347174E-18
      1.57757077255497E-01
      0.00000000000000E+00   2.87394861289335E-10   0.00000000000000E+00   0.00000000000000E+00  -1.14675890081842E-09
     -8.06840396322723E-35  -1.14675890081842E-09   3.66656480345877E-18   0.00000000000000E+00   0.00000000000000E+00
      0.00000000000000E+00   0.00000000000000E+00   0.00000000000000E+00   0.00000000000000E+00   0.00000000000000E+00
      2.34614735386778E-18   0.00000000000000E+00   0.00000000000000E+00   0.00000000000000E+00   0.00000000000000E+00
      5.03256770214747E-17   2.40486483245659E-34   5.03256770214747E-17  -9.08552648647709E-18   7.88785386277484E-03
      7.88785357479452E-03   0.00000000000000E+00   0.00000000000000E+00   1.14675885049274E-09  -1.59802443613387E-34
      1.14675885049274E-09   3.07281432915056E-18
      1.67757077255497E-01
      0.00000000000000E+00   3.00313269680583E-10   0.00000000000000E+00   0.00000000000000E+00  -1.19829653481474E-09
     -9.79052156585053E-35  -1.19829653481474E-09   3.66643806077829E-18   0.00000000000000E+00   0.00000000000000E+00
      0.00000000000000E+00   0.00000000000000E+00   0.00000000000000E+00   0.00000000000000E+00   0.00000000000000E+00
      2.34150367021952E-18   0.00000000000000E+00   0.00000000000000E+00   0.00000000000000E+00   0.00000000000000E+00
      4.96119943427860E-17   2.56093884811681E-34   4.96119943427860E-17  -9.08536830433682E-18   8.38785386277484E-03
      8.38785356185047E-03   0.00000000000000E+00   0.00000000000000E+00   1.19829648520275E-09  -1.58188669153176E-34
      1.19829648520275E-09   3.07742657333898E-18
      1.77757077255497E-01
      0.00000000000000E+00   3.12713998918578E-10   0.00000000000000E+00   0.00000000000000E+00  -1.24776807831211E-09
     -1.15699980813746E-34  -1.24776807831211E-09   3.66631133687891E-18   0.00000000000000E+00   0.00000000000000E+00
      0.00000000000000E+00   0.00000000000000E+00   0.00000000000000E+00   0.00000000000000E+00   0.00000000000000E+00
      2.33686066776065E-18   0.00000000000000E+00   0.00000000000000E+00   0.00000000000000E+00   0.00000000000000E+00
      4.87191516723918E-17   2.58106140852715E-34   4.87191516723918E-17  -9.08521169561945E-18   8.88785386277484E-03
      8.88785354942521E-03   0.00000000000000E+00   0.00000000000000E+00   1.24776802959296E-09  -1.42406160038969E-34
      1.24776802959296E-09   3.08203969097988E-18
      1.87757077255497E-01
      0.00000000000000E+00   3.24615086511058E-10   0.00000000000000E+00   0.00000000000000E+00  -1.29524557532088E-09
     -1.09599883865708E-34  -1.29524557532088E-09   3.66618463156841E-18   0.00000000000000E+00   0.00000000000000E+00
      0.00000000000000E+00   0.00000000000000E+00   0.00000000000000E+00   0.00000000000000E+00   0.00000000000000E+00
      2.33221834099449E-18   0.00000000000000E+00   0.00000000000000E+00   0.00000000000000E+00   0.00000000000000E+00
      4.79164391386027E-17   2.79493552205810E-34   4.79164391386027E-17  -9.08505664961421E-18   9.38785386277484E-03
      9.38785353750066E-03   0.00000000000000E+00   0.00000000000000E+00   1.29524552740444E-09  -1.69893668340101E-34
      1.29524552740444E-09   3.08665367705128E-18
      1.97757077255497E-01
      0.00000000000000E+00   3.36034127285536E-10   0.00000000000000E+00   0.00000000000000E+00  -1.34079931125594E-09