DF-ISE text

Info {
  version   = 1.0
  type      = xyplot
  datasets  = [
    "time"
    "source OuterVoltage" "source InnerVoltage" "source QuasiFermiPotential" "source DisplacementCurrent" "source eCurrent"
    "source hCurrent" "source TotalCurrent" "source Charge" "gate OuterVoltage" "gate InnerVoltage"
    "gate QuasiFermiPotential" "gate DisplacementCurrent" "gate eCurrent" "gate hCurrent" "gate TotalCurrent"
    "gate Charge" "substrate OuterVoltage" "substrate InnerVoltage" "substrate QuasiFermiPotential" "substrate DisplacementCurrent"
    "substrate eCurrent" "substrate hCurrent" "substrate TotalCurrent" "substrate Charge" "drain OuterVoltage"
    "drain InnerVoltage" "drain QuasiFermiPotential" "drain DisplacementCurrent" "drain eCurrent" "drain hCurrent"
    "drain TotalCurrent" "drain Charge" ]
  functions = [
    Time
    OuterVoltage InnerVoltage QuasiFermiPotential DisplacementCurrent eCurrent
    hCurrent TotalCurrent Charge OuterVoltage InnerVoltage
    QuasiFermiPotential DisplacementCurrent eCurrent hCurrent TotalCurrent
    Charge OuterVoltage InnerVoltage QuasiFermiPotential DisplacementCurrent
    eCurrent hCurrent TotalCurrent Charge OuterVoltage
    InnerVoltage QuasiFermiPotential DisplacementCurrent eCurrent hCurrent
    TotalCurrent Charge ]
}

Data {
      0.00000000000000E+00
      0.00000000000000E+00   0.00000000000000E+00   0.00000000000000E+00   0.00000000000000E+00   1.60839381958709E-20
      4.92651809619011E-34   1.60839381958714E-20   4.80222809789117E-18   0.00000000000000E+00   0.00000000000000E+00
      0.00000000000000E+00   0.00000000000000E+00   0.00000000000000E+00   0.00000000000000E+00   0.00000000000000E+00
      4.12623249428021E-18   0.00000000000000E+00   0.00000000000000E+00   0.00000000000000E+00   0.00000000000000E+00
     -1.13495473177628E-20  -9.57186627104547E-34  -1.13495473177638E-20  -1.29647814678123E-17   0.00000000000000E+00
      0.00000000000000E+00   0.00000000000000E+00   0.00000000000000E+00  -4.73439087810806E-21   4.64534817485535E-34
     -4.73439087810760E-21   4.03632087564089E-18
      0.00000000000000E+00
      0.00000000000000E+00   0.00000000000000E+00   0.00000000000000E+00   0.00000000000000E+00  -5.09330163648148E-20
      4.57509540364497E-34  -5.09330163648143E-20   4.80075063536036E-18   0.00000000000000E+00   0.00000000000000E+00
      0.00000000000000E+00   0.00000000000000E+00   0.00000000000000E+00   0.00000000000000E+00   0.00000000000000E+00
      4.12012566593096E-18   0.00000000000000E+00   0.00000000000000E+00   0.00000000000000E+00   0.00000000000000E+00
      1.03039224267120E-19  -9.47189692010467E-34   1.03039224267119E-19  -1.29560197701301E-17   0.00000000000000E+00
      0.00000000000000E+00   0.00000000000000E+00   0.00000000000000E+00  -5.21062079023050E-20   4.89680151645969E-34
     -5.21062079023046E-20   4.03514346883877E-18
      1.00000000000000E-03
      0.00000000000000E+00   2.05708495117933E-11   0.00000000000000E+00   0.00000000000000E+00  -9.28215259403002E-11
      4.71129541149061E-34  -9.28215259403002E-11   4.80056115306282E-18   0.00000000000000E+00   0.00000000000000E+00
      0.00000000000000E+00   0.00000000000000E+00   0.00000000000000E+00   0.00000000000000E+00   0.00000000000000E+00
      4.10977291452382E-18   0.00000000000000E+00   0.00000000000000E+00   0.00000000000000E+00   0.00000000000000E+00
     -6.36871885219046E-18  -9.23235369788132E-34  -6.36871885219046E-18  -1.29555363048329E-17   8.60000000000000E-04
      8.59999979381976E-04   0.00000000000000E+00   0.00000000000000E+00   9.28215323090190E-11   4.52105828639071E-34
      9.28215323090190E-11   4.04520223724623E-18
      2.08666666666667E-03
      0.00000000000000E+00   4.16557957141209E-11   0.00000000000000E+00   0.00000000000000E+00  -1.87955078338454E-10
      4.60823756792614E-34  -1.87955078338454E-10   4.80035529298627E-18   0.00000000000000E+00   0.00000000000000E+00
      0.00000000000000E+00   0.00000000000000E+00   0.00000000000000E+00   0.00000000000000E+00   0.00000000000000E+00
      4.09852557772515E-18   0.00000000000000E+00   0.00000000000000E+00   0.00000000000000E+00   0.00000000000000E+00
      1.10589595285153E-15  -8.99341726215937E-34   1.10589595285153E-15  -1.29550176612779E-17   1.79453333333333E-03
      1.79453329158177E-03   0.00000000000000E+00   0.00000000000000E+00   1.87953972442501E-10   4.38517969423324E-34
      1.87953972442501E-10   4.05613679056645E-18
      3.28200000000000E-03
      0.00000000000000E+00   6.33476558841684E-11   0.00000000000000E+00   0.00000000000000E+00  -2.85815175743731E-10
      4.68558915603207E-34  -2.85815175743731E-10   4.80012889922560E-18   0.00000000000000E+00   0.00000000000000E+00
      0.00000000000000E+00   0.00000000000000E+00   0.00000000000000E+00   0.00000000000000E+00   0.00000000000000E+00
      4.08615664978971E-18   0.00000000000000E+00   0.00000000000000E+00   0.00000000000000E+00   0.00000000000000E+00
      1.57383630095187E-15  -8.93951647560210E-34   1.57383630095187E-15  -1.29544551433967E-17   2.82252000000000E-03
      2.82251993650695E-03   0.00000000000000E+00   0.00000000000000E+00   2.85813601907430E-10   4.25392731957003E-34
      2.85813601907430E-10   4.06816959438138E-18
      4.59686666666667E-03
      0.00000000000000E+00   8.54665506954531E-11   0.00000000000000E+00   0.00000000000000E+00  -3.85587598200431E-10
      4.83442440765978E-34  -3.85587598200431E-10   4.79987992832503E-18   0.00000000000000E+00   0.00000000000000E+00
      0.00000000000000E+00   0.00000000000000E+00   0.00000000000000E+00   0.00000000000000E+00   0.00000000000000E+00
      4.07255456786898E-18   0.00000000000000E+00   0.00000000000000E+00   0.00000000000000E+00   0.00000000000000E+00
      8.22597091981244E-20  -8.84285071634719E-34   8.22597091981235E-20  -1.29538459159750E-17   3.95330533333333E-03
      3.95330524767118E-03   0.00000000000000E+00   0.00000000000000E+00   3.85587598118172E-10   4.00842630868741E-34
      3.85587598118172E-10   4.08141141978094E-18
      6.03445422222222E-03
      0.00000000000000E+00   1.07676886803259E-10   0.00000000000000E+00   0.00000000000000E+00  -4.85758495070748E-10
      4.68376239871714E-34  -4.85758495070748E-10   4.79960779323684E-18   0.00000000000000E+00   0.00000000000000E+00
      0.00000000000000E+00   0.00000000000000E+00   0.00000000000000E+00   0.00000000000000E+00   0.00000000000000E+00
      4.05768735876605E-18   0.00000000000000E+00   0.00000000000000E+00   0.00000000000000E+00   0.00000000000000E+00
      2.26676425094498E-19  -8.63702945617526E-34   2.26676425094497E-19  -1.29531911047711E-17   5.18963063111111E-03
      5.18963052318782E-03   0.00000000000000E+00   0.00000000000000E+00   4.85758494844071E-10   3.95326705745813E-34
      4.85758494844071E-10   4.09589595276819E-18
      7.60621661629630E-03
      0.00000000000000E+00   1.29759964984356E-10   0.00000000000000E+00   0.00000000000000E+00  -5.85339140422718E-10
      4.51466494420121E-34  -5.85339140422718E-10   4.79931034419825E-18   0.00000000000000E+00   0.00000000000000E+00
      0.00000000000000E+00   0.00000000000000E+00   0.00000000000000E+00   0.00000000000000E+00   0.00000000000000E+00
      4.04143769871214E-18   0.00000000000000E+00   0.00000000000000E+00   0.00000000000000E+00   0.00000000000000E+00
     -1.56552987359945E-19  -8.35896464967439E-34  -1.56552987359946E-19  -1.29524884497782E-17   6.54134629001482E-03
      6.54134615995785E-03   0.00000000000000E+00   0.00000000000000E+00   5.85339140579271E-10   3.84429970547317E-34
      5.85339140579271E-10   4.11174040686779E-18
      9.32467683381729E-03
      0.00000000000000E+00   1.51479313777132E-10   0.00000000000000E+00   0.00000000000000E+00  -6.83262369052109E-10
      4.62962394782146E-34  -6.83262369052109E-10   4.79898523252425E-18   0.00000000000000E+00   0.00000000000000E+00
      0.00000000000000E+00   0.00000000000000E+00   0.00000000000000E+00   0.00000000000000E+00   0.00000000000000E+00
      4.02367743163131E-18   0.00000000000000E+00   0.00000000000000E+00   0.00000000000000E+00   0.00000000000000E+00
      2.20093004262729E-21  -8.28956181809232E-34   2.20093004262646E-21  -1.29517358101575E-17   8.01922207708287E-03
      8.01922192525664E-03   0.00000000000000E+00   0.00000000000000E+00   6.83262369049908E-10   3.65993787027086E-34
      6.83262369049908E-10   4.12907314600192E-18
      1.12035266716402E-02
      0.00000000000000E+00   1.72585205650725E-10   0.00000000000000E+00   0.00000000000000E+00  -7.78402233656461E-10
      4.52646789322311E-34  -7.78402233656461E-10   4.79862989222053E-18   0.00000000000000E+00   0.00000000000000E+00
      0.00000000000000E+00   0.00000000000000E+00   0.00000000000000E+00   0.00000000000000E+00   0.00000000000000E+00
      4.00426657406220E-18   0.00000000000000E+00   0.00000000000000E+00   0.00000000000000E+00   0.00000000000000E+00
      8.17923387760094E-21  -8.07152489608928E-34   8.17923387760013E-21  -1.29509312246790E-17   9.63503293761060E-03
      9.63503276462973E-03   0.00000000000000E+00   0.00000000000000E+00   7.78402233648281E-10   3.54505700286617E-34
      7.78402233648281E-10   4.14803475839628E-18
      1.32577358276600E-02
      0.00000000000000E+00   1.92821797229012E-10   0.00000000000000E+00   0.00000000000000E+00  -8.69606338578987E-10
      4.63700755657286E-34  -8.69606338578987E-10   4.79824151984593E-18   0.00000000000000E+00   0.00000000000000E+00
      0.00000000000000E+00   0.00000000000000E+00   0.00000000000000E+00   0.00000000000000E+00   0.00000000000000E+00
      3.98305222702873E-18   0.00000000000000E+00   0.00000000000000E+00   0.00000000000000E+00   0.00000000000000E+00
      1.91960818307760E-19  -7.88129917907250E-34   1.91960818307759E-19  -1.29500729813730E-17   1.14016528117876E-02
      1.14016526185230E-02   0.00000000000000E+00   0.00000000000000E+00   8.69606338387026E-10   3.24429162249964E-34
      8.69606338387026E-10   4.16877923449834E-18
      1.55036711715749E-02
      0.00000000000000E+00   2.11936060205239E-10   0.00000000000000E+00   0.00000000000000E+00  -9.55736400819767E-10
      4.59134207592645E-34  -9.55736400819767E-10   4.79781705249992E-18   0.00000000000000E+00   0.00000000000000E+00
      0.00000000000000E+00   0.00000000000000E+00   0.00000000000000E+00   0.00000000000000E+00   0.00000000000000E+00
      3.95986738846417E-18   0.00000000000000E+00   0.00000000000000E+00   0.00000000000000E+00   0.00000000000000E+00
     -1.54707668358122E-19  -7.50496504360433E-34  -1.54707668358123E-19  -1.29491597008695E-17   1.33331572075544E-02
      1.33331569951306E-02   0.00000000000000E+00   0.00000000000000E+00   9.55736400974474E-10   2.91362296767787E-34
      9.55736400974474E-10   4.19147525990544E-18
      1.79592271475886E-02
      0.00000000000000E+00   2.29689529579878E-10   0.00000000000000E+00   0.00000000000000E+00  -1.03572154873141E-09
      4.73297620158791E-34  -1.03572154873141E-09   4.79735314368119E-18   0.00000000000000E+00   0.00000000000000E+00
      0.00000000000000E+00   0.00000000000000E+00   0.00000000000000E+00   0.00000000000000E+00   0.00000000000000E+00
      3.93452965259546E-18   0.00000000000000E+00   0.00000000000000E+00   0.00000000000000E+00   0.00000000000000E+00
     -6.99359657888364E-20  -7.57037435030131E-34  -6.99359657888371E-20  -1.29481904289174E-17   1.54449353469262E-02
      1.54449351167065E-02   0.00000000000000E+00   0.00000000000000E+00   1.03572154880135E-09   2.83739814871340E-34
      1.03572154880135E-09   4.21630763264082E-18
      2.06439683480302E-02
      0.00000000000000E+00   2.45871356882604E-10   0.00000000000000E+00   0.00000000000000E+00  -1.10861722685308E-09
      4.90814831202765E-34  -1.10861722685308E-09   4.79684613688781E-18   0.00000000000000E+00   0.00000000000000E+00
      0.00000000000000E+00   0.00000000000000E+00   0.00000000000000E+00   0.00000000000000E+00   0.00000000000000E+00
      3.90683979062805E-18   0.00000000000000E+00   0.00000000000000E+00   0.00000000000000E+00   0.00000000000000E+00
     -1.17867633949976E-19  -7.49342642119865E-34  -1.17867633949977E-19  -1.29471647462274E-17   1.77538127793060E-02
      1.77538125328649E-02   0.00000000000000E+00   0.00000000000000E+00   1.10861722697095E-09   2.58527810917101E-34
      1.10861722697095E-09   4.24347881871159E-18
      2.35792853938464E-02
      0.00000000000000E+00   2.60313225081459E-10   0.00000000000000E+00   0.00000000000000E+00  -1.17367250147792E-09
      4.81532766473740E-34  -1.17367250147792E-09   4.79629203666855E-18   0.00000000000000E+00   0.00000000000000E+00
      0.00000000000000E+00   0.00000000000000E+00   0.00000000000000E+00   0.00000000000000E+00   0.00000000000000E+00
      3.87658019681119E-18   0.00000000000000E+00   0.00000000000000E+00   0.00000000000000E+00   0.00000000000000E+00
     -5.76580668924890E-20  -7.15927280518176E-34  -5.76580668924898E-20  -1.29460828905886E-17   2.02781854387079E-02
      2.02781851777886E-02   0.00000000000000E+00   0.00000000000000E+00   1.17367250153557E-09   2.34394514044436E-34
      1.17367250153557E-09   4.27321065710888E-18
      2.67885653639387E-02
      0.00000000000000E+00   2.72905111506308E-10   0.00000000000000E+00   0.00000000000000E+00  -1.23040137152801E-09
      4.86157381860937E-34  -1.23040137152801E-09   4.79568647688204E-18   0.00000000000000E+00   0.00000000000000E+00
      0.00000000000000E+00   0.00000000000000E+00   0.00000000000000E+00   0.00000000000000E+00   0.00000000000000E+00
      3.84351318704939E-18   0.00000000000000E+00   0.00000000000000E+00   0.00000000000000E+00   0.00000000000000E+00
     -9.73770553835097E-20  -7.09635130544953E-34  -9.73770553835104E-20  -1.29449458921580E-17   2.30381662129873E-02
      2.30381659394434E-02   0.00000000000000E+00   0.00000000000000E+00   1.23040137162539E-09   2.23477748684015E-34
      1.23040137162539E-09   4.30574622822658E-18
      3.02973781312396E-02
      0.00000000000000E+00   2.83610828203762E-10   0.00000000000000E+00   0.00000000000000E+00  -1.27865218270999E-09
      4.49341678456144E-34  -1.27865218270999E-09   4.79502468591383E-18   0.00000000000000E+00   0.00000000000000E+00
      0.00000000000000E+00   0.00000000000000E+00   0.00000000000000E+00   0.00000000000000E+00   0.00000000000000E+00
      3.80737913650322E-18   0.00000000000000E+00   0.00000000000000E+00   0.00000000000000E+00   0.00000000000000E+00
     -3.94491064170517E-19  -6.38973549625080E-34  -3.94491064170517E-19  -1.29437557236591E-17   2.60557451928661E-02
      2.60557449085877E-02   0.00000000000000E+00   0.00000000000000E+00   1.27865218310449E-09   1.89631871168937E-34
      1.27865218310449E-09   4.34135190124195E-18
      3.41336800901553E-02
      0.00000000000000E+00   2.92482116441819E-10   0.00000000000000E+00   0.00000000000000E+00  -1.31867098277628E-09
      4.59748792992685E-34  -1.31867098277628E-09   4.79430144850544E-18   0.00000000000000E+00   0.00000000000000E+00
      0.00000000000000E+00   0.00000000000000E+00   0.00000000000000E+00   0.00000000000000E+00   0.00000000000000E+00
      3.76789443461050E-18   0.00000000000000E+00   0.00000000000000E+00   0.00000000000000E+00   0.00000000000000E+00
     -5.12895448690086E-19  -6.28552037188731E-34  -5.12895448690086E-19  -1.29425154577531E-17   2.93549648775336E-02
      2.93549645843590E-02   0.00000000000000E+00   0.00000000000000E+00   1.31867098328917E-09   1.68803244196046E-34
      1.31867098328917E-09   4.38031957463716E-18
      3.83280368985698E-02
      0.00000000000000E+00   2.99666523382141E-10   0.00000000000000E+00   0.00000000000000E+00  -1.35113604469787E-09
      4.58768166578168E-34  -1.35113604469787E-09   4.79351106399831E-18   0.00000000000000E+00   0.00000000000000E+00
      0.00000000000000E+00   0.00000000000000E+00   0.00000000000000E+00   0.00000000000000E+00   0.00000000000000E+00
      3.72474924763955E-18   0.00000000000000E+00   0.00000000000000E+00   0.00000000000000E+00   0.00000000000000E+00
     -2.81662682430419E-19  -6.10242928724851E-34  -2.81662682430419E-19  -1.29412294403763E-17   3.29621117327701E-02
      3.29621114323904E-02   0.00000000000000E+00   0.00000000000000E+00   1.35113604497954E-09   1.51474762146683E-34
      1.35113604497954E-09   4.42296912873838E-18
      4.29138670091030E-02
      0.00000000000000E+00   3.05407493924792E-10   0.00000000000000E+00   0.00000000000000E+00  -1.37715713321358E-09
      4.59964667949665E-34  -1.37715713321358E-09   4.79264730066477E-18   0.00000000000000E+00   0.00000000000000E+00
      0.00000000000000E+00   0.00000000000000E+00   0.00000000000000E+00   0.00000000000000E+00   0.00000000000000E+00
      3.67760506096812E-18   0.00000000000000E+00   0.00000000000000E+00   0.00000000000000E+00   0.00000000000000E+00
     -1.13962751884244E-18  -5.91956955956293E-34  -1.13962751884244E-18  -1.29399034682696E-17   3.69059256278286E-02
      3.69059253216918E-02   0.00000000000000E+00   0.00000000000000E+00   1.37715713435321E-09   1.31992288006628E-34
      1.37715713435321E-09   4.46965110663667E-18
      4.79277079299527E-02
      0.00000000000000E+00   3.10030774869809E-10   0.00000000000000E+00   0.00000000000000E+00  -1.39821212325900E-09
      4.63484710331083E-34  -1.39821212325900E-09   4.79170334587748E-18   0.00000000000000E+00   0.00000000000000E+00
      0.00000000000000E+00   0.00000000000000E+00   0.00000000000000E+00   0.00000000000000E+00   0.00000000000000E+00
      3.62609198261764E-18   0.00000000000000E+00   0.00000000000000E+00   0.00000000000000E+00   0.00000000000000E+00
     -1.65969912991443E-18  -5.80504735804803E-34  -1.65969912991443E-18  -1.29385449709585E-17   4.12178288197593E-02
      4.12178285089877E-02   0.00000000000000E+00   0.00000000000000E+00   1.39821212491870E-09   1.17020025473720E-34
      1.39821212491870E-09   4.52074964246339E-18
      5.34095073367482E-02
      0.00000000000000E+00   3.13914909654507E-10   0.00000000000000E+00   0.00000000000000E+00  -1.41601312690662E-09
      4.49910207483655E-34  -1.41601312690662E-09   4.79067175194445E-18   0.00000000000000E+00   0.00000000000000E+00
      0.00000000000000E+00   0.00000000000000E+00   0.00000000000000E+00   0.00000000000000E+00   0.00000000000000E+00
      3.56980578950461E-18   0.00000000000000E+00   0.00000000000000E+00   0.00000000000000E+00   0.00000000000000E+00
     -1.82181296943701E-17  -5.50305791637155E-34  -1.82181296943701E-17  -1.29371631992978E-17   4.59321763096035E-02
      4.59321759949415E-02   0.00000000000000E+00   0.00000000000000E+00   1.41601314512474E-09   1.00395584153500E-34
      1.41601314512474E-09   4.57668565784867E-18
      5.94029413548448E-02
      0.00000000000000E+00   3.17449534644676E-10   0.00000000000000E+00   0.00000000000000E+00  -1.43231701978354E-09
      4.62301362218646E-34  -1.43231701978354E-09   4.78954437740935E-18   0.00000000000000E+00   0.00000000000000E+00
      0.00000000000000E+00   0.00000000000000E+00   0.00000000000000E+00   0.00000000000000E+00   0.00000000000000E+00
      3.50830469905794E-18   0.00000000000000E+00   0.00000000000000E+00   0.00000000000000E+00   0.00000000000000E+00
     -2.38520728307143E-17  -5.41715989224512E-34  -2.38520728307143E-17  -1.29357694239390E-17   5.10865295651665E-02
      5.10865292469695E-02   0.00000000000000E+00   0.00000000000000E+00   1.43231704363561E-09   7.94146270058666E-35
      1.43231704363561E-09   4.63792034747171E-18
      6.59557625479636E-02
      0.00000000000000E+00   3.20979483441753E-10   0.00000000000000E+00   0.00000000000000E+00  -1.44867722042285E-09
      4.62832262126496E-34  -1.44867722042285E-09   4.78831232396004E-18   0.00000000000000E+00   0.00000000000000E+00
      0.00000000000000E+00   0.00000000000000E+00   0.00000000000000E+00   0.00000000000000E+00   0.00000000000000E+00
      3.44110585717566E-18   0.00000000000000E+00   0.00000000000000E+00   0.00000000000000E+00   0.00000000000000E+00
     -3.27599844457031E-17  -5.29908177159828E-34  -3.27599844457031E-17  -1.29343771585623E-17   5.67219557912487E-02
      5.67219554695275E-02   0.00000000000000E+00   0.00000000000000E+00   1.44867725318283E-09   6.70759150333326E-35
      1.44867725318283E-09   4.70495897742660E-18
      7.31201803857736E-02
      0.00000000000000E+00   3.24746906104046E-10   0.00000000000000E+00   0.00000000000000E+00  -1.46617701206590E-09
      4.53614033515980E-34  -1.46617701206590E-09   4.78696586790133E-18   0.00000000000000E+00   0.00000000000000E+00
      0.00000000000000E+00   0.00000000000000E+00   0.00000000000000E+00   0.00000000000000E+00   0.00000000000000E+00
      3.36768150920137E-18   0.00000000000000E+00   0.00000000000000E+00   0.00000000000000E+00   0.00000000000000E+00
      2.27473323422565E-19  -5.08222688877745E-34   2.27473323422564E-19  -1.29330023960595E-17   6.28833551317653E-02
      6.28833548062889E-02   0.00000000000000E+00   0.00000000000000E+00   1.46617701183842E-09   5.46086553617650E-35
      1.46617701183842E-09   4.77835501895681E-18
      8.09055144361937E-02
      0.00000000000000E+00   3.28859407474896E-10   0.00000000000000E+00   0.00000000000000E+00  -1.48529439124900E-09
      4.60056545199946E-34  -1.48529439124900E-09   4.78550335360494E-18   0.00000000000000E+00   0.00000000000000E+00
      0.00000000000000E+00   0.00000000000000E+00   0.00000000000000E+00   0.00000000000000E+00   0.00000000000000E+00
      3.28794383124314E-18   0.00000000000000E+00   0.00000000000000E+00   0.00000000000000E+00   0.00000000000000E+00
      3.46934087517222E-20  -5.01939738501036E-34   3.46934087517217E-20  -1.29316714882014E-17   6.95787424151266E-02
      6.95787420855558E-02   0.00000000000000E+00   0.00000000000000E+00   1.48529439121430E-09   4.18831933010901E-35
      1.48529439121430E-09   4.85822430335334E-18
      8.93655774376503E-02
      0.00000000000000E+00   3.33390073426536E-10   0.00000000000000E+00   0.00000000000000E+00  -1.50635922362119E-09
      4.87279305193201E-34  -1.50635922362119E-09   4.78391476959965E-18   0.00000000000000E+00   0.00000000000000E+00
      0.00000000000000E+00   0.00000000000000E+00   0.00000000000000E+00   0.00000000000000E+00   0.00000000000000E+00
      3.20134933334222E-18   0.00000000000000E+00   0.00000000000000E+00   0.00000000000000E+00   0.00000000000000E+00
      1.31795489817765E-19  -5.20369293971292E-34   1.31795489817764E-19  -1.29304041728301E-17   7.68543965963792E-02
      7.68543962623017E-02   0.00000000000000E+00   0.00000000000000E+00   1.50635922348939E-09   3.30899887780906E-35
      1.50635922348939E-09   4.94514006988828E-18
      9.85588458992330E-02
      0.00000000000000E+00   3.38370274289634E-10   0.00000000000000E+00   0.00000000000000E+00  -1.52951932569758E-09
      4.65199792914111E-34  -1.52951932569758E-09   4.78218924285182E-18   0.00000000000000E+00   0.00000000000000E+00
      0.00000000000000E+00   0.00000000000000E+00   0.00000000000000E+00   0.00000000000000E+00   0.00000000000000E+00
      3.10730758200350E-18   0.00000000000000E+00   0.00000000000000E+00   0.00000000000000E+00   0.00000000000000E+00
      6.63872335543081E-20  -4.90301217458243E-34   6.63872335543076E-20  -1.29292227478315E-17   8.47606074733404E-02
      8.47606071343104E-02   0.00000000000000E+00   0.00000000000000E+00   1.52951932563119E-09   2.51014245441303E-35
      1.52951932563119E-09   5.03972592297627E-18
      1.08548864294153E-01
      0.00000000000000E+00   3.43801682990724E-10   0.00000000000000E+00   0.00000000000000E+00  -1.55479156258374E-09
      4.71334014678944E-34  -1.55479156258374E-09   4.78031496423486E-18   0.00000000000000E+00   0.00000000000000E+00
      0.00000000000000E+00   0.00000000000000E+00   0.00000000000000E+00   0.00000000000000E+00   0.00000000000000E+00
      3.00517713278003E-18   0.00000000000000E+00   0.00000000000000E+00   0.00000000000000E+00   0.00000000000000E+00
     -2.23959556305189E-19  -4.90427149018702E-34  -2.23959556305189E-19  -1.29281521891326E-17   9.33520232929716E-02
      9.33520229485419E-02   0.00000000000000E+00   0.00000000000000E+00   1.55479156280770E-09   1.90931343397587E-35
      1.55479156280770E-09   5.14266009211765E-18
      1.18548864294153E-01
      0.00000000000000E+00   3.49243368160018E-10   0.00000000000000E+00   0.00000000000000E+00  -1.58013182663771E-09
      4.61102749043685E-34  -1.58013182663771E-09   4.77843956758325E-18   0.00000000000000E+00   0.00000000000000E+00
      0.00000000000000E+00   0.00000000000000E+00   0.00000000000000E+00   0.00000000000000E+00   0.00000000000000E+00
      2.90300265636982E-18   0.00000000000000E+00   0.00000000000000E+00   0.00000000000000E+00   0.00000000000000E+00
     -2.26115044967703E-19  -4.75501245153268E-34  -2.26115044967703E-19  -1.29272852063227E-17   1.01952023292972E-01
      1.01952022943135E-01   0.00000000000000E+00   0.00000000000000E+00   1.58013182686383E-09   1.43984961095839E-35
      1.58013182686383E-09   5.24584298236959E-18
      1.28548864294153E-01
      0.00000000000000E+00   3.54701375209696E-10   0.00000000000000E+00   0.00000000000000E+00  -1.60556918210839E-09
      4.57728548781395E-34  -1.60556918210839E-09   4.77656485682785E-18   0.00000000000000E+00   0.00000000000000E+00
      0.00000000000000E+00   0.00000000000000E+00   0.00000000000000E+00   0.00000000000000E+00   0.00000000000000E+00
      2.80088059653183E-18   0.00000000000000E+00   0.00000000000000E+00   0.00000000000000E+00   0.00000000000000E+00
      1.83032446765695E-19  -4.68748762176163E-34   1.83032446765694E-19  -1.29266064232995E-17   1.10552023292972E-01
      1.10552022937717E-01   0.00000000000000E+00   0.00000000000000E+00   1.60556918192536E-09   1.10202133947677E-35
      1.60556918192536E-09   5.34916096993973E-18
      1.38548864294153E-01
      0.00000000000000E+00   3.60188610860927E-10   0.00000000000000E+00   0.00000000000000E+00  -1.63116210271117E-09
      4.49087307693218E-34  -1.63116210271117E-09   4.77469077204995E-18   0.00000000000000E+00   0.00000000000000E+00
      0.00000000000000E+00   0.00000000000000E+00   0.00000000000000E+00   0.00000000000000E+00   0.00000000000000E+00
      2.69880606649046E-18   0.00000000000000E+00   0.00000000000000E+00   0.00000000000000E+00   0.00000000000000E+00
      1.35899621547598E-19  -4.57049004585986E-34   1.35899621547597E-19  -1.29261009496155E-17   1.19152023292972E-01
      1.19152022932270E-01   0.00000000000000E+00   0.00000000000000E+00   1.63116210257527E-09   7.96169689276857E-36
      1.63116210257527E-09   5.45260411107506E-18
      1.48548864294153E-01
      0.00000000000000E+00   3.65712859941253E-10   0.00000000000000E+00   0.00000000000000E+00  -1.65694542438596E-09
      4.72044383485162E-34  -1.65694542438596E-09   4.77281726260136E-18   0.00000000000000E+00   0.00000000000000E+00
      0.00000000000000E+00   0.00000000000000E+00   0.00000000000000E+00   0.00000000000000E+00   0.00000000000000E+00
      2.59677486168131E-18   0.00000000000000E+00   0.00000000000000E+00   0.00000000000000E+00   0.00000000000000E+00
     -1.29959526031419E-19  -4.78124008064703E-34  -1.29959526031420E-19  -1.29257554097173E-17   1.27752023292972E-01
      1.27752022926783E-01   0.00000000000000E+00   0.00000000000000E+00   1.65694542451592E-09   6.07962457954012E-36
      1.65694542451592E-09   5.55616328543463E-18
      1.58548864294153E-01
      0.00000000000000E+00   3.71277883577182E-10   0.00000000000000E+00   0.00000000000000E+00  -1.68293534647942E-09
      4.66951193473822E-34  -1.68293534647942E-09   4.77094428390240E-18   0.00000000000000E+00   0.00000000000000E+00
      0.00000000000000E+00   0.00000000000000E+00   0.00000000000000E+00   0.00000000000000E+00   0.00000000000000E+00
      2.49478330813780E-18   0.00000000000000E+00   0.00000000000000E+00   0.00000000000000E+00   0.00000000000000E+00
     -1.44682737238192E-19  -4.71335012860748E-34  -1.44682737238192E-19  -1.29255577035982E-17   1.36352023292972E-01
      1.36352022921251E-01   0.00000000000000E+00   0.00000000000000E+00   1.68293534662411E-09   4.38381938692624E-36
      1.68293534662411E-09   5.65983011155803E-18
      1.68548864294153E-01
      0.00000000000000E+00   3.76884638531682E-10   0.00000000000000E+00   0.00000000000000E+00  -1.70913549755153E-09
      4.62028228766123E-34  -1.70913549755153E-09   4.76907179544839E-18   0.00000000000000E+00   0.00000000000000E+00
      0.00000000000000E+00   0.00000000000000E+00   0.00000000000000E+00   0.00000000000000E+00   0.00000000000000E+00
      2.39282813759698E-18   0.00000000000000E+00   0.00000000000000E+00   0.00000000000000E+00   0.00000000000000E+00
     -2.66579253540546E-20  -4.65284752281250E-34  -2.66579253540551E-20  -1.29254968055040E-17   1.44952023292972E-01
      1.44952022915676E-01   0.00000000000000E+00   0.00000000000000E+00   1.70913549757818E-09   3.25652351512692E-36
      1.70913549757818E-09   5.76359687245865E-18
      1.78548864294153E-01
      0.00000000000000E+00   3.82532473439623E-10   0.00000000000000E+00   0.00000000000000E+00  -1.73554245877889E-09
      4.65454533466433E-34  -1.73554245877889E-09   4.76719976022000E-18   0.00000000000000E+00   0.00000000000000E+00
      0.00000000000000E+00   0.00000000000000E+00   0.00000000000000E+00   0.00000000000000E+00   0.00000000000000E+00
      2.29090642547782E-18   0.00000000000000E+00   0.00000000000000E+00   0.00000000000000E+00   0.00000000000000E+00
     -3.46634591583697E-20  -4.67873648771840E-34  -3.46634591583702E-20  -1.29255626389711E-17   1.53552023292972E-01
      1.53552022910060E-01   0.00000000000000E+00   0.00000000000000E+00   1.73554245881355E-09   2.41911530540718E-36
      1.73554245881355E-09   5.86745645327322E-18
      1.88548864294153E-01
      0.00000000000000E+00   3.88220247285098E-10   0.00000000000000E+00   0.00000000000000E+00  -1.76215088649032E-09