DF-ISE text

Info {
  version   = 1.0
  type      = xyplot
  datasets  = [
    "time"
    "source OuterVoltage" "source InnerVoltage" "source QuasiFermiPotential" "source DisplacementCurrent" "source eCurrent"
    "source hCurrent" "source TotalCurrent" "source Charge" "gate OuterVoltage" "gate InnerVoltage"
    "gate QuasiFermiPotential" "gate DisplacementCurrent" "gate eCurrent" "gate hCurrent" "gate TotalCurrent"
    "gate Charge" "substrate OuterVoltage" "substrate InnerVoltage" "substrate QuasiFermiPotential" "substrate DisplacementCurrent"
    "substrate eCurrent" "substrate hCurrent" "substrate TotalCurrent" "substrate Charge" "drain OuterVoltage"
    "drain InnerVoltage" "drain QuasiFermiPotential" "drain DisplacementCurrent" "drain eCurrent" "drain hCurrent"
    "drain TotalCurrent" "drain Charge" ]
  functions = [
    Time
    OuterVoltage InnerVoltage QuasiFermiPotential DisplacementCurrent eCurrent
    hCurrent TotalCurrent Charge OuterVoltage InnerVoltage
    QuasiFermiPotential DisplacementCurrent eCurrent hCurrent TotalCurrent
    Charge OuterVoltage InnerVoltage QuasiFermiPotential DisplacementCurrent
    eCurrent hCurrent TotalCurrent Charge OuterVoltage
    InnerVoltage QuasiFermiPotential DisplacementCurrent eCurrent hCurrent
    TotalCurrent Charge ]
}

Data {
      0.00000000000000E+00
      0.00000000000000E+00   0.00000000000000E+00   0.00000000000000E+00   0.00000000000000E+00  -1.25315068399007E-20
      5.36859945787689E-34  -1.25315068399002E-20   5.23342886415791E-18   0.00000000000000E+00   0.00000000000000E+00
      0.00000000000000E+00   0.00000000000000E+00   0.00000000000000E+00   0.00000000000000E+00   0.00000000000000E+00
      4.38792471974572E-18   0.00000000000000E+00   0.00000000000000E+00   0.00000000000000E+00   0.00000000000000E+00
      1.16817581488241E-20  -1.07244768527804E-33   1.16817581488230E-20  -1.40474746954653E-17   0.00000000000000E+00
      0.00000000000000E+00   0.00000000000000E+00   0.00000000000000E+00   8.49748691076672E-22   5.35587739490352E-34
      8.49748691077208E-22   4.42612111156167E-18
      0.00000000000000E+00
      0.00000000000000E+00   0.00000000000000E+00   0.00000000000000E+00   0.00000000000000E+00   3.33139587389282E-19
      5.17606419709952E-34   3.33139587389283E-19   5.23163910622463E-18   0.00000000000000E+00   0.00000000000000E+00
      0.00000000000000E+00   0.00000000000000E+00   0.00000000000000E+00   0.00000000000000E+00   0.00000000000000E+00
      4.38113760946566E-18   0.00000000000000E+00   0.00000000000000E+00   0.00000000000000E+00   0.00000000000000E+00
     -3.19770241828588E-19  -1.04910890402033E-33  -3.19770241828589E-19  -1.40374592016023E-17   0.00000000000000E+00
      0.00000000000000E+00   0.00000000000000E+00   0.00000000000000E+00  -1.33693455606944E-20   5.31502484310373E-34
     -1.33693455606939E-20   4.42468248591200E-18
      1.00000000000000E-03
      0.00000000000000E+00   1.21300692609609E-12   0.00000000000000E+00   0.00000000000000E+00  -5.49178790889382E-12
      5.12173998034937E-34  -5.49178790889382E-12   5.23162543661411E-18   0.00000000000000E+00   0.00000000000000E+00
      0.00000000000000E+00   0.00000000000000E+00   0.00000000000000E+00   0.00000000000000E+00   0.00000000000000E+00
      4.38050404245119E-18   0.00000000000000E+00   0.00000000000000E+00   0.00000000000000E+00   0.00000000000000E+00
      2.34249150133125E-20  -1.03322820262015E-33   2.34249150133114E-20  -1.40374310377296E-17   5.00000000000000E-05
      4.99999987815845E-05   0.00000000000000E+00   0.00000000000000E+00   5.49178788546891E-12   5.21054204585216E-34
      5.49178788546891E-12   4.42530155866429E-18
      2.09333333333333E-03
      0.00000000000000E+00   2.53529476506059E-12   0.00000000000000E+00   0.00000000000000E+00  -1.14783793423967E-11
      5.10079070422086E-34  -1.14783793423967E-11   5.23161049133689E-18   0.00000000000000E+00   0.00000000000000E+00
      0.00000000000000E+00   0.00000000000000E+00   0.00000000000000E+00   0.00000000000000E+00   0.00000000000000E+00
      4.37981135189459E-18   0.00000000000000E+00   0.00000000000000E+00   0.00000000000000E+00   0.00000000000000E+00
     -3.57166901875204E-19  -1.04109361705543E-33  -3.57166901875205E-19  -1.40374002691576E-17   1.04666666666667E-04
      1.04666664120053E-04   0.00000000000000E+00   0.00000000000000E+00   1.14783796995636E-11   5.31014546633341E-34
      1.14783796995636E-11   4.42597842592615E-18
      3.29600000000000E-03
      0.00000000000000E+00   3.98492996653079E-12   0.00000000000000E+00   0.00000000000000E+00  -1.80414615763688E-11
      4.79684055007214E-34  -1.80414615763688E-11   5.23159405173016E-18   0.00000000000000E+00   0.00000000000000E+00
      0.00000000000000E+00   0.00000000000000E+00   0.00000000000000E+00   0.00000000000000E+00   0.00000000000000E+00
      4.37904940358809E-18   0.00000000000000E+00   0.00000000000000E+00   0.00000000000000E+00   0.00000000000000E+00
     -2.27593834854954E-19  -9.86679209810600E-34  -2.27593834854955E-19  -1.40373664525777E-17   1.64800000000000E-04
      1.64799995997290E-04   0.00000000000000E+00   0.00000000000000E+00   1.80414618039626E-11   5.06995154803386E-34
      1.80414618039626E-11   4.42672299725956E-18
      4.61893333333333E-03
      0.00000000000000E+00   5.57350350486475E-12   0.00000000000000E+00   0.00000000000000E+00  -2.52335238107844E-11
      5.00940920429577E-34  -2.52335238107844E-11   5.23157596840307E-18   0.00000000000000E+00   0.00000000000000E+00
      0.00000000000000E+00   0.00000000000000E+00   0.00000000000000E+00   0.00000000000000E+00   0.00000000000000E+00
      4.37821127411725E-18   0.00000000000000E+00   0.00000000000000E+00   0.00000000000000E+00   0.00000000000000E+00
     -1.02461207970140E-19  -1.02874950097159E-33  -1.02461207970141E-19  -1.40373292892205E-17   2.30946666666667E-04
      2.30946661068290E-04   0.00000000000000E+00   0.00000000000000E+00   2.52335239132456E-11   5.27808580542016E-34
      2.52335239132456E-11   4.42754204670010E-18
      6.07416000000000E-03
      0.00000000000000E+00   7.31355176538515E-12   0.00000000000000E+00   0.00000000000000E+00  -3.31112994061526E-11
      4.96648428529204E-34  -3.31112994061526E-11   5.23155607703438E-18   0.00000000000000E+00   0.00000000000000E+00
      0.00000000000000E+00   0.00000000000000E+00   0.00000000000000E+00   0.00000000000000E+00   0.00000000000000E+00
      4.37728934821739E-18   0.00000000000000E+00   0.00000000000000E+00   0.00000000000000E+00   0.00000000000000E+00
      3.81687669327003E-20  -9.99099134878510E-34   3.81687669326993E-20  -1.40372884516965E-17   3.03708000000000E-04
      3.03707992653816E-04   0.00000000000000E+00   0.00000000000000E+00   3.31112993679839E-11   5.02450706349305E-34
      3.31112993679839E-11   4.42844302644468E-18
      7.67490933333333E-03
      0.00000000000000E+00   9.21858772103326E-12   0.00000000000000E+00   0.00000000000000E+00  -4.17359424865159E-11
      5.24728855013995E-34  -4.17359424865159E-11   5.23153419688129E-18   0.00000000000000E+00   0.00000000000000E+00
      0.00000000000000E+00   0.00000000000000E+00   0.00000000000000E+00   0.00000000000000E+00   0.00000000000000E+00
      4.37627524969029E-18   0.00000000000000E+00   0.00000000000000E+00   0.00000000000000E+00   0.00000000000000E+00
      8.87099290387650E-20  -1.04121655273991E-33   8.87099290387640E-20  -1.40372435813969E-17   3.83745466666667E-04
      3.83745457406954E-04   0.00000000000000E+00   0.00000000000000E+00   4.17359423978060E-11   5.16487697725912E-34
      4.17359423978060E-11   4.42943413482534E-18
      9.43573360000000E-03
      0.00000000000000E+00   1.13031388499210E-11   0.00000000000000E+00   0.00000000000000E+00  -5.11731957516176E-11
      5.06565815290429E-34  -5.11731957516176E-11   5.23151012913941E-18   0.00000000000000E+00   0.00000000000000E+00
      0.00000000000000E+00   0.00000000000000E+00   0.00000000000000E+00   0.00000000000000E+00   0.00000000000000E+00
      4.37515976543322E-18   0.00000000000000E+00   0.00000000000000E+00   0.00000000000000E+00   0.00000000000000E+00
      6.49230134053787E-20  -1.00900606513741E-33   6.49230134053777E-20  -1.40371942856856E-17   4.71786680000000E-04
      4.71786668646453E-04   0.00000000000000E+00   0.00000000000000E+00   5.11731956866945E-11   5.02440249846983E-34
      5.11731956866945E-11   4.43052439111295E-18
      1.13726402933333E-02
      0.00000000000000E+00   1.35827673580252E-11   0.00000000000000E+00   0.00000000000000E+00  -6.14935299971772E-11
      5.12011587996867E-34  -6.14935299971772E-11   5.23148365513943E-18   0.00000000000000E+00   0.00000000000000E+00
      0.00000000000000E+00   0.00000000000000E+00   0.00000000000000E+00   0.00000000000000E+00   0.00000000000000E+00
      4.37393276189632E-18   0.00000000000000E+00   0.00000000000000E+00   0.00000000000000E+00   0.00000000000000E+00
      1.66123680990054E-20  -1.05576883610338E-33   1.66123680990043E-20  -1.40371401348766E-17   5.68632014666667E-04
      5.68632001023323E-04   0.00000000000000E+00   0.00000000000000E+00   6.14935299805648E-11   5.43757248106514E-34
      6.14935299805648E-11   4.43172371784091E-18
      1.35032376560000E-02
      0.00000000000000E+00   1.60741333751080E-11   0.00000000000000E+00   0.00000000000000E+00  -7.27722380235606E-11
      5.35236040262770E-34  -7.27722380235606E-11   5.23145453436353E-18   0.00000000000000E+00   0.00000000000000E+00
      0.00000000000000E+00   0.00000000000000E+00   0.00000000000000E+00   0.00000000000000E+00   0.00000000000000E+00
      4.37258309321555E-18   0.00000000000000E+00   0.00000000000000E+00   0.00000000000000E+00   0.00000000000000E+00
      5.61268601379443E-20  -1.03806278667290E-33   5.61268601379433E-20  -1.40370806589875E-17   6.75161882800000E-04
      6.75161866654199E-04   0.00000000000000E+00   0.00000000000000E+00   7.27722379674337E-11   5.02826746410134E-34
      7.27722379674337E-11   4.43304303140844E-18
      1.58468947549333E-02
      0.00000000000000E+00   1.87949553519400E-11   0.00000000000000E+00   0.00000000000000E+00  -8.50894684551631E-11
      5.28669014820395E-34  -8.50894684551631E-11   5.23142250226468E-18   0.00000000000000E+00   0.00000000000000E+00
      0.00000000000000E+00   0.00000000000000E+00   0.00000000000000E+00   0.00000000000000E+00   0.00000000000000E+00
      4.37109850019548E-18   0.00000000000000E+00   0.00000000000000E+00   0.00000000000000E+00   0.00000000000000E+00
      3.15290187224248E-19  -1.03414774729004E-33   3.15290187224247E-19  -1.40370153442615E-17   7.92344737746667E-04
      7.92344718867932E-04   0.00000000000000E+00   0.00000000000000E+00   8.50894681398730E-11   5.05478732469647E-34
      8.50894681398730E-11   4.43449434180133E-18
      1.84249175637600E-02
      0.00000000000000E+00   2.17639982637288E-11   0.00000000000000E+00   0.00000000000000E+00  -9.85301769031652E-11
      5.14867850462269E-34  -9.85301769031652E-11   5.23138726786814E-18   0.00000000000000E+00   0.00000000000000E+00
      0.00000000000000E+00   0.00000000000000E+00   0.00000000000000E+00   0.00000000000000E+00   0.00000000000000E+00
      4.36946549923432E-18   0.00000000000000E+00   0.00000000000000E+00   0.00000000000000E+00   0.00000000000000E+00
      2.07257911893717E-19  -1.02568586143269E-33   2.07257911893716E-19  -1.40369436294564E-17   9.21245878188001E-04
      9.21245856327011E-04   0.00000000000000E+00   0.00000000000000E+00   9.85301766959073E-11   5.10818010970423E-34
      9.85301766959073E-11   4.43609086235394E-18
      2.12607426534693E-02
      0.00000000000000E+00   2.50010845640780E-11   0.00000000000000E+00   0.00000000000000E+00  -1.13183980229016E-10
      5.18566140592897E-34  -1.13183980229016E-10   5.23134851113423E-18   0.00000000000000E+00   0.00000000000000E+00
      0.00000000000000E+00   0.00000000000000E+00   0.00000000000000E+00   0.00000000000000E+00   0.00000000000000E+00
      4.36766926019173E-18   0.00000000000000E+00   0.00000000000000E+00   0.00000000000000E+00   0.00000000000000E+00
      6.86687544480761E-19  -1.02679418753528E-33   6.86687544480760E-19  -1.40368649018950E-17   1.06303713267347E-03
      1.06303710756099E-03   0.00000000000000E+00   0.00000000000000E+00   1.13183979542329E-10   5.08228046942386E-34
      1.13183979542329E-10   4.43784713056907E-18
      2.43801502521496E-02
      0.00000000000000E+00   2.85270040254749E-11   0.00000000000000E+00   0.00000000000000E+00  -1.29144877471279E-10
      4.92068290325617E-34  -1.29144877471279E-10   5.23130588005844E-18   0.00000000000000E+00   0.00000000000000E+00
      0.00000000000000E+00   0.00000000000000E+00   0.00000000000000E+00   0.00000000000000E+00   0.00000000000000E+00
      4.36569347210644E-18   0.00000000000000E+00   0.00000000000000E+00   0.00000000000000E+00   0.00000000000000E+00
      6.28236226878360E-19  -9.94185093066776E-34   6.28236226878359E-19  -1.40367784932847E-17   1.21900751260748E-03
      1.21900748395341E-03   0.00000000000000E+00   0.00000000000000E+00   1.29144876843043E-10   5.02116802741158E-34
      1.29144876843043E-10   4.43977914111979E-18
      2.78114986106979E-02
      0.00000000000000E+00   3.23634185241043E-11   0.00000000000000E+00   0.00000000000000E+00  -1.46510814874969E-10
      5.08898096710395E-34  -1.46510814874969E-10   5.23125898748305E-18   0.00000000000000E+00   0.00000000000000E+00
      0.00000000000000E+00   0.00000000000000E+00   0.00000000000000E+00   0.00000000000000E+00   0.00000000000000E+00
      4.36352019556193E-18   0.00000000000000E+00   0.00000000000000E+00   0.00000000000000E+00   0.00000000000000E+00
      1.17161921130815E-18  -1.02864606597176E-33   1.17161921130815E-18  -1.40366836753165E-17   1.39057493053490E-03
      1.39057489802736E-03   0.00000000000000E+00   0.00000000000000E+00   1.46510813703350E-10   5.19747969261367E-34
      1.46510813703350E-10   4.44190449227147E-18
      3.15859818051010E-02
      0.00000000000000E+00   3.65327171105382E-11   0.00000000000000E+00   0.00000000000000E+00  -1.65383049685688E-10
      5.13241720676708E-34  -1.65383049685688E-10   5.23120740759122E-18   0.00000000000000E+00   0.00000000000000E+00
      0.00000000000000E+00   0.00000000000000E+00   0.00000000000000E+00   0.00000000000000E+00   0.00000000000000E+00
      4.36112970037685E-18   0.00000000000000E+00   0.00000000000000E+00   0.00000000000000E+00   0.00000000000000E+00
      1.74126599671773E-18  -1.02686210827986E-33   1.74126599671773E-18  -1.40365796550571E-17   1.57929909025505E-03
      1.57929905355967E-03   0.00000000000000E+00   0.00000000000000E+00   1.65383047944422E-10   5.13620387603155E-34
      1.65383047944422E-10   4.44424254708901E-18
      3.57379133189445E-02
      0.00000000000000E+00   4.10578828769972E-11   0.00000000000000E+00   0.00000000000000E+00  -1.85865288376729E-10
      5.13690617084316E-34  -1.85865288376729E-10   5.23115067205254E-18   0.00000000000000E+00   0.00000000000000E+00
      0.00000000000000E+00   0.00000000000000E+00   0.00000000000000E+00   0.00000000000000E+00   0.00000000000000E+00
      4.35850028717090E-18   0.00000000000000E+00   0.00000000000000E+00   0.00000000000000E+00   0.00000000000000E+00
      2.12292402470316E-18  -1.00782584518794E-33   2.12292402470316E-18  -1.40364655701606E-17   1.78689566594722E-03
      1.78689562470660E-03   0.00000000000000E+00   0.00000000000000E+00   1.85865286253805E-10   4.94135228103619E-34
      1.85865286253805E-10   4.44681461093710E-18
      4.03050379841723E-02
      0.00000000000000E+00   4.59621331619129E-11   0.00000000000000E+00   0.00000000000000E+00  -2.08062542881756E-10
      4.97130000837913E-34  -2.08062542881756E-10   5.23108826578539E-18   0.00000000000000E+00   0.00000000000000E+00
      0.00000000000000E+00   0.00000000000000E+00   0.00000000000000E+00   0.00000000000000E+00   0.00000000000000E+00
      4.35560809121427E-18   0.00000000000000E+00   0.00000000000000E+00   0.00000000000000E+00   0.00000000000000E+00
      3.73725343101554E-18  -1.00171868209819E-33   3.73725343101554E-18  -1.40363404839365E-17   2.01525189920861E-03
      2.01525185304197E-03   0.00000000000000E+00   0.00000000000000E+00   2.08062539144502E-10   5.04588681260275E-34
      2.08062539144502E-10   4.44964412693684E-18
      4.53288751159228E-02
      0.00000000000000E+00   5.12687038411864E-11   0.00000000000000E+00   0.00000000000000E+00  -2.32079654958194E-10
      4.98138958485050E-34  -2.32079654958194E-10   5.23101962229800E-18   0.00000000000000E+00   0.00000000000000E+00
      0.00000000000000E+00   0.00000000000000E+00   0.00000000000000E+00   0.00000000000000E+00   0.00000000000000E+00
      4.35242686681278E-18   0.00000000000000E+00   0.00000000000000E+00   0.00000000000000E+00   0.00000000000000E+00
      5.39617914298219E-18  -1.03123689462900E-33   5.39617914298218E-18  -1.40362033803256E-17   2.26644375579614E-03
      2.26644370429938E-03   0.00000000000000E+00   0.00000000000000E+00   2.32079649562014E-10   5.33097936143947E-34
      2.32079649562014E-10   4.45275689121483E-18
      5.08550959608485E-02
      0.00000000000000E+00   5.70003858914415E-11   0.00000000000000E+00   0.00000000000000E+00  -2.58019433482758E-10
      5.05964285387829E-34  -2.58019433482758E-10   5.23094411856705E-18   0.00000000000000E+00   0.00000000000000E+00
      0.00000000000000E+00   0.00000000000000E+00   0.00000000000000E+00   0.00000000000000E+00   0.00000000000000E+00
      4.34892775031766E-18   0.00000000000000E+00   0.00000000000000E+00   0.00000000000000E+00   0.00000000000000E+00
      7.92999975603405E-18  -9.88078462212031E-34   7.92999975603405E-18  -1.40360531588599E-17   2.54275479804242E-03
      2.54275474078858E-03   0.00000000000000E+00   0.00000000000000E+00   2.58019425552759E-10   4.82114176824202E-34
      2.58019425552759E-10   4.45618128997514E-18
      5.69339388902666E-02
      0.00000000000000E+00   6.31789995999692E-11   0.00000000000000E+00   0.00000000000000E+00  -2.85980355018192E-10
      4.98328639434441E-34  -2.85980355018192E-10   5.23086106940749E-18   0.00000000000000E+00   0.00000000000000E+00
      0.00000000000000E+00   0.00000000000000E+00   0.00000000000000E+00   0.00000000000000E+00   0.00000000000000E+00
      4.34507899964614E-18   0.00000000000000E+00   0.00000000000000E+00   0.00000000000000E+00   0.00000000000000E+00
      1.17099042382294E-17  -9.98435217391142E-34   1.17099042382294E-17  -1.40358886296844E-17   2.84669694451333E-03
      2.84669688105352E-03   0.00000000000000E+00   0.00000000000000E+00   2.85980343308288E-10   5.00106577956701E-34
      2.85980343308288E-10   4.45994856063080E-18
      6.36206661126266E-02
      0.00000000000000E+00   6.98248628763869E-11   0.00000000000000E+00   0.00000000000000E+00  -3.16053971598177E-10
      5.24821584617580E-34  -3.16053971598177E-10   5.23076972128346E-18   0.00000000000000E+00   0.00000000000000E+00
      0.00000000000000E+00   0.00000000000000E+00   0.00000000000000E+00   0.00000000000000E+00   0.00000000000000E+00
      4.34084570796307E-18   0.00000000000000E+00   0.00000000000000E+00   0.00000000000000E+00   0.00000000000000E+00
      9.99314848068479E-17  -9.97185758206934E-34   9.99314848068479E-17  -1.40357085087079E-17   3.18103330563133E-03
      3.18103323549624E-03   0.00000000000000E+00   0.00000000000000E+00   3.16053871666692E-10   4.72364173589353E-34
      3.16053871666692E-10   4.46409307946138E-18
      7.09760660572226E-02
      0.00000000000000E+00   7.69559857153098E-11   0.00000000000000E+00   0.00000000000000E+00  -3.48321063389772E-10
      5.34749450147952E-34  -3.48321063389772E-10   5.23066924550618E-18   0.00000000000000E+00   0.00000000000000E+00
      0.00000000000000E+00   0.00000000000000E+00   0.00000000000000E+00   0.00000000000000E+00   0.00000000000000E+00
      4.33618948911327E-18   0.00000000000000E+00   0.00000000000000E+00   0.00000000000000E+00   0.00000000000000E+00
     -5.42101796408602E-17  -1.01348688642845E-33  -5.42101796408602E-17  -1.40355114131770E-17   3.54880330286113E-03
      3.54880322556339E-03   0.00000000000000E+00   0.00000000000000E+00   3.48321117599952E-10   4.78737436280494E-34
      3.48321117599952E-10   4.46865267855761E-18
      7.90670059962782E-02
      0.00000000000000E+00   8.45872368528185E-11   0.00000000000000E+00   0.00000000000000E+00  -3.82848599538810E-10
      5.08606467591143E-34  -3.82848599538810E-10   5.23055873075704E-18   0.00000000000000E+00   0.00000000000000E+00
      0.00000000000000E+00   0.00000000000000E+00   0.00000000000000E+00   0.00000000000000E+00   0.00000000000000E+00
      4.33106813188884E-18   0.00000000000000E+00   0.00000000000000E+00   0.00000000000000E+00   0.00000000000000E+00
      3.58379588732241E-17  -9.57729746448494E-34   3.58379588732241E-17  -1.40352958576933E-17   3.95335029981391E-03
      3.95335021485119E-03   0.00000000000000E+00   0.00000000000000E+00   3.82848563700851E-10   4.49123278857352E-34
      3.82848563700851E-10   4.47366899504740E-18
      8.79670399292394E-02
      0.00000000000000E+00   9.27293553822680E-11   0.00000000000000E+00   0.00000000000000E+00  -4.19684391012043E-10
      5.04993149374569E-34  -4.19684391012043E-10   5.23043717486951E-18   0.00000000000000E+00   0.00000000000000E+00
      0.00000000000000E+00   0.00000000000000E+00   0.00000000000000E+00   0.00000000000000E+00   0.00000000000000E+00
      4.32543522014267E-18   0.00000000000000E+00   0.00000000000000E+00   0.00000000000000E+00   0.00000000000000E+00
     -3.40653561592977E-20  -9.54758037100819E-34  -3.40653561592987E-20  -1.40350602509669E-17   4.39835199646197E-03
      4.39835190332117E-03   0.00000000000000E+00   0.00000000000000E+00   4.19684391046108E-10   4.49764887726250E-34
      4.19684391046108E-10   4.47918785595476E-18
      9.77570772554967E-02
      0.00000000000000E+00   1.01387787106746E-10   0.00000000000000E+00   0.00000000000000E+00  -4.58852360713426E-10
      5.05344539200530E-34  -4.58852360713426E-10   5.23030347579740E-18   0.00000000000000E+00   0.00000000000000E+00
      0.00000000000000E+00   0.00000000000000E+00   0.00000000000000E+00   0.00000000000000E+00   0.00000000000000E+00
      4.31923971539186E-18   0.00000000000000E+00   0.00000000000000E+00   0.00000000000000E+00   0.00000000000000E+00
      7.54747409773023E-17  -9.45087818998019E-34   7.54747409773023E-17  -1.40348028935739E-17   4.88785386277484E-03
      4.88785376093741E-03   0.00000000000000E+00   0.00000000000000E+00   4.58852285238684E-10   4.39743279797489E-34
      4.58852285238684E-10   4.48525970238465E-18
      1.07757077255497E-01
      0.00000000000000E+00   1.09918285010580E-10   0.00000000000000E+00   0.00000000000000E+00  -4.97437796733505E-10
      5.31679596073477E-34  -4.97437796733505E-10   5.23016692263513E-18   0.00000000000000E+00   0.00000000000000E+00
      0.00000000000000E+00   0.00000000000000E+00   0.00000000000000E+00   0.00000000000000E+00   0.00000000000000E+00
      4.31291208759469E-18   0.00000000000000E+00   0.00000000000000E+00   0.00000000000000E+00   0.00000000000000E+00
      8.71516817902222E-17  -9.82195753175212E-34   8.71516817902222E-17  -1.40345419626173E-17   5.38785386277483E-03
      5.38785375236931E-03   0.00000000000000E+00   0.00000000000000E+00   4.97437709581823E-10   4.50516157101735E-34
      4.97437709581823E-10   4.49146295238740E-18
      1.17757077255497E-01
      0.00000000000000E+00   1.18140840992354E-10   0.00000000000000E+00   0.00000000000000E+00  -5.34626518646583E-10
      5.11885796747708E-34  -5.34626518646583E-10   5.23003038278344E-18   0.00000000000000E+00   0.00000000000000E+00
      0.00000000000000E+00   0.00000000000000E+00   0.00000000000000E+00   0.00000000000000E+00   0.00000000000000E+00
      4.30658521092969E-18   0.00000000000000E+00   0.00000000000000E+00   0.00000000000000E+00   0.00000000000000E+00
      8.01550050064052E-17  -9.45275534834588E-34   8.01550050064052E-17  -1.40342829859574E-17   5.88785386277483E-03
      5.88785374411054E-03   0.00000000000000E+00   0.00000000000000E+00   5.34626438491578E-10   4.33389738086881E-34
      5.34626438491578E-10   4.49766739224423E-18
      1.27757077255497E-01
      0.00000000000000E+00   1.26064421289210E-10   0.00000000000000E+00   0.00000000000000E+00  -5.70459591707537E-10
      4.96504966528092E-34  -5.70459591707537E-10   5.22989385611424E-18   0.00000000000000E+00   0.00000000000000E+00
      0.00000000000000E+00   0.00000000000000E+00   0.00000000000000E+00   0.00000000000000E+00   0.00000000000000E+00
      4.30025907930375E-18   0.00000000000000E+00   0.00000000000000E+00   0.00000000000000E+00   0.00000000000000E+00
      8.66622261388436E-17  -9.29758984341655E-34   8.66622261388436E-17  -1.40340259513299E-17   6.38785386277483E-03
      6.38785373615205E-03   0.00000000000000E+00   0.00000000000000E+00   5.70459505045311E-10   4.33254017813563E-34
      5.70459505045311E-10   4.50387301591187E-18
      1.37757077255497E-01
      0.00000000000000E+00   1.33697996351353E-10   0.00000000000000E+00   0.00000000000000E+00  -6.04977673054391E-10
      5.03160852741696E-34  -6.04977673054391E-10   5.22975734249954E-18   0.00000000000000E+00   0.00000000000000E+00
      0.00000000000000E+00   0.00000000000000E+00   0.00000000000000E+00   0.00000000000000E+00   0.00000000000000E+00
      4.29393368668629E-18   0.00000000000000E+00   0.00000000000000E+00   0.00000000000000E+00   0.00000000000000E+00
      8.55925755824395E-17  -9.18935293231674E-34   8.55925755824395E-17  -1.40337708465734E-17   6.88785386277483E-03
      6.88785372848489E-03   0.00000000000000E+00   0.00000000000000E+00   6.04977587461816E-10   4.15774440489978E-34
      6.04977587461816E-10   4.51007981738755E-18
      1.47757077255497E-01
      0.00000000000000E+00   1.41050288058370E-10   0.00000000000000E+00   0.00000000000000E+00  -6.38220695779342E-10
      5.24083652414599E-34  -6.38220695779342E-10   5.22962084181243E-18   0.00000000000000E+00   0.00000000000000E+00
      0.00000000000000E+00   0.00000000000000E+00   0.00000000000000E+00   0.00000000000000E+00   0.00000000000000E+00
      4.28760902718082E-18   0.00000000000000E+00   0.00000000000000E+00   0.00000000000000E+00   0.00000000000000E+00
      8.41901692436270E-17  -9.28708168699739E-34   8.41901692436270E-17  -1.40335176597129E-17   7.38785386277483E-03
      7.38785372110025E-03   0.00000000000000E+00   0.00000000000000E+00   6.38220611589173E-10   4.04624516285139E-34
      6.38220611589173E-10   4.51628779071964E-18
      1.57757077255497E-01
      0.00000000000000E+00   1.48130015762009E-10   0.00000000000000E+00   0.00000000000000E+00  -6.70228213830783E-10
      5.02345845379518E-34  -6.70228213830783E-10   5.22948435392526E-18   0.00000000000000E+00   0.00000000000000E+00
      0.00000000000000E+00   0.00000000000000E+00   0.00000000000000E+00   0.00000000000000E+00   0.00000000000000E+00
      4.28128509485755E-18   0.00000000000000E+00   0.00000000000000E+00   0.00000000000000E+00   0.00000000000000E+00
      8.30632254051407E-17  -9.15950936215116E-34   8.30632254051407E-17  -1.40332663787641E-17   7.88785386277484E-03
      7.88785371398940E-03   0.00000000000000E+00   0.00000000000000E+00   6.70228130767558E-10   4.13605090835598E-34
      6.70228130767558E-10   4.52249692998130E-18
      1.67757077255497E-01
      0.00000000000000E+00   1.54945704170585E-10   0.00000000000000E+00   0.00000000000000E+00  -7.01039163622247E-10
      5.20361096782465E-34  -7.01039163622247E-10   5.22934787871018E-18   0.00000000000000E+00   0.00000000000000E+00
      0.00000000000000E+00   0.00000000000000E+00   0.00000000000000E+00   0.00000000000000E+00   0.00000000000000E+00
      4.27496188380026E-18   0.00000000000000E+00   0.00000000000000E+00   0.00000000000000E+00   0.00000000000000E+00
      8.22319410482008E-17  -9.16419661306626E-34   8.22319410482008E-17  -1.40330169917790E-17   8.38785386277484E-03
      8.38785370714376E-03   0.00000000000000E+00   0.00000000000000E+00   7.01039081390306E-10   3.96058564524160E-34
      7.01039081390306E-10   4.52870722926858E-18
      1.77757077255497E-01
      0.00000000000000E+00   1.61505728850041E-10   0.00000000000000E+00   0.00000000000000E+00  -7.30691649202250E-10
      4.87937623249232E-34  -7.30691649202250E-10   5.22921141603987E-18   0.00000000000000E+00   0.00000000000000E+00
      0.00000000000000E+00   0.00000000000000E+00   0.00000000000000E+00   0.00000000000000E+00   0.00000000000000E+00
      4.26863938816580E-18   0.00000000000000E+00   0.00000000000000E+00   0.00000000000000E+00   0.00000000000000E+00
      8.03792801571671E-17  -8.79738403093395E-34   8.03792801571671E-17  -1.40327694869165E-17   8.88785386277484E-03
      8.88785370055489E-03   0.00000000000000E+00   0.00000000000000E+00   7.30691568822970E-10   3.91800779844163E-34
      7.30691568822970E-10   4.53491868271081E-18
      1.87757077255497E-01
      0.00000000000000E+00   1.67818263139377E-10   0.00000000000000E+00   0.00000000000000E+00  -7.59222860900355E-10
      5.30268946941792E-34  -7.59222860900355E-10   5.22907496578843E-18   0.00000000000000E+00   0.00000000000000E+00
      0.00000000000000E+00   0.00000000000000E+00   0.00000000000000E+00   0.00000000000000E+00   0.00000000000000E+00
      4.26231760223206E-18   0.00000000000000E+00   0.00000000000000E+00   0.00000000000000E+00   0.00000000000000E+00
      7.98568832768396E-17  -8.99929759859423E-34   7.98568832768396E-17  -1.40325238525130E-17   9.38785386277484E-03
      9.38785369421464E-03   0.00000000000000E+00   0.00000000000000E+00   7.59222781043472E-10   3.69660812917631E-34
      7.59222781043472E-10   4.54113128449252E-18
      1.97757077255497E-01
      0.00000000000000E+00   1.73891324494322E-10   0.00000000000000E+00   0.00000000000000E+00  -7.86669359161505E-10