DF-ISE text

Info {
  version   = 1.0
  type      = xyplot
  datasets  = [
    "time"
    "source OuterVoltage" "source InnerVoltage" "source QuasiFermiPotential" "source DisplacementCurrent" "source eCurrent"
    "source hCurrent" "source TotalCurrent" "source Charge" "gate OuterVoltage" "gate InnerVoltage"
    "gate QuasiFermiPotential" "gate DisplacementCurrent" "gate eCurrent" "gate hCurrent" "gate TotalCurrent"
    "gate Charge" "substrate OuterVoltage" "substrate InnerVoltage" "substrate QuasiFermiPotential" "substrate DisplacementCurrent"
    "substrate eCurrent" "substrate hCurrent" "substrate TotalCurrent" "substrate Charge" "drain OuterVoltage"
    "drain InnerVoltage" "drain QuasiFermiPotential" "drain DisplacementCurrent" "drain eCurrent" "drain hCurrent"
    "drain TotalCurrent" "drain Charge" ]
  functions = [
    Time
    OuterVoltage InnerVoltage QuasiFermiPotential DisplacementCurrent eCurrent
    hCurrent TotalCurrent Charge OuterVoltage InnerVoltage
    QuasiFermiPotential DisplacementCurrent eCurrent hCurrent TotalCurrent
    Charge OuterVoltage InnerVoltage QuasiFermiPotential DisplacementCurrent
    eCurrent hCurrent TotalCurrent Charge OuterVoltage
    InnerVoltage QuasiFermiPotential DisplacementCurrent eCurrent hCurrent
    TotalCurrent Charge ]
}

Data {
      0.00000000000000E+00
      0.00000000000000E+00   0.00000000000000E+00   0.00000000000000E+00   0.00000000000000E+00  -6.58715339009155E-21
     -1.11106460883515E-34  -6.58715339009166E-21   4.94875550156754E-18   0.00000000000000E+00   0.00000000000000E+00
      0.00000000000000E+00   0.00000000000000E+00   0.00000000000000E+00   0.00000000000000E+00   0.00000000000000E+00
      2.32040690740877E-18   0.00000000000000E+00   0.00000000000000E+00   0.00000000000000E+00   0.00000000000000E+00
      1.38812431253811E-20   2.48537795627560E-34   1.38812431253813E-20  -1.18901485148458E-17   0.00000000000000E+00
      0.00000000000000E+00   0.00000000000000E+00   0.00000000000000E+00  -7.29408973528956E-21  -1.37431334744045E-34
     -7.29408973528969E-21   4.62098610586946E-18
      0.00000000000000E+00
      0.00000000000000E+00   0.00000000000000E+00   0.00000000000000E+00   0.00000000000000E+00  -5.20265595732490E-20
     -1.14850125812148E-34  -5.20265595732491E-20   4.94697453535367E-18   0.00000000000000E+00   0.00000000000000E+00
      0.00000000000000E+00   0.00000000000000E+00   0.00000000000000E+00   0.00000000000000E+00   0.00000000000000E+00
      2.31529601569128E-18   0.00000000000000E+00   0.00000000000000E+00   0.00000000000000E+00   0.00000000000000E+00
      1.80386642596081E-19   2.28156699506200E-34   1.80386642596081E-19  -1.18817586204064E-17   0.00000000000000E+00
      0.00000000000000E+00   0.00000000000000E+00   0.00000000000000E+00  -1.28360083022832E-19  -1.13306573694052E-34
     -1.28360083022832E-19   4.61948806936139E-18
      1.00000000000000E-03
      0.00000000000000E+00   3.85200874215563E-11   0.00000000000000E+00   0.00000000000000E+00  -1.77432024723575E-10
     -1.13284144857216E-34  -1.77432024723575E-10   4.94648716212267E-18   0.00000000000000E+00   0.00000000000000E+00
      0.00000000000000E+00   0.00000000000000E+00   0.00000000000000E+00   0.00000000000000E+00   0.00000000000000E+00
      2.30427052387300E-18   0.00000000000000E+00   0.00000000000000E+00   0.00000000000000E+00   0.00000000000000E+00
     -9.29241891447018E-20   2.57891650824828E-34  -9.29241891447015E-20  -1.18812017502854E-17   8.60000000000000E-04
      8.59999961272769E-04   0.00000000000000E+00   0.00000000000000E+00   1.77432024816499E-10  -1.44607505967612E-34
      1.77432024816499E-10   4.63044406428968E-18
      2.08666666666667E-03
      0.00000000000000E+00   7.77835626802312E-11   0.00000000000000E+00   0.00000000000000E+00  -3.58276943832070E-10
     -9.41932119557771E-35  -3.58276943832070E-10   4.94595764864071E-18   0.00000000000000E+00   0.00000000000000E+00
      0.00000000000000E+00   0.00000000000000E+00   0.00000000000000E+00   0.00000000000000E+00   0.00000000000000E+00
      2.29229194570185E-18   0.00000000000000E+00   0.00000000000000E+00   0.00000000000000E+00   0.00000000000000E+00
      8.78809292709989E-20   2.07924877529245E-34   8.78809292709991E-20  -1.18806032064366E-17   1.79453333333333E-03
      1.79453325513211E-03   0.00000000000000E+00   0.00000000000000E+00   3.58276943744189E-10  -1.13731665573468E-34
      3.58276943744189E-10   4.64235361209405E-18
      3.27475555555556E-03
      0.00000000000000E+00   1.17669666409333E-10   0.00000000000000E+00   0.00000000000000E+00  -5.41974223442235E-10
     -1.03132525625303E-34  -5.41974223442235E-10   4.94537883055862E-18   0.00000000000000E+00   0.00000000000000E+00
      0.00000000000000E+00   0.00000000000000E+00   0.00000000000000E+00   0.00000000000000E+00   0.00000000000000E+00
      2.27919825351652E-18   0.00000000000000E+00   0.00000000000000E+00   0.00000000000000E+00   0.00000000000000E+00
      1.95096852365780E-20   2.07370570260569E-34   1.95096852365782E-20  -1.18799565657548E-17   2.81628977777778E-03
      2.81628965947717E-03   0.00000000000000E+00   0.00000000000000E+00   5.41974223422725E-10  -1.04238044635267E-34
      5.41974223422725E-10   4.65537948167966E-18
      4.57373274074074E-03
      0.00000000000000E+00   1.57809075324273E-10   0.00000000000000E+00   0.00000000000000E+00  -7.26820351731222E-10
     -1.00744917663168E-34  -7.26820351731222E-10   4.94474612709631E-18   0.00000000000000E+00   0.00000000000000E+00
      0.00000000000000E+00   0.00000000000000E+00   0.00000000000000E+00   0.00000000000000E+00   0.00000000000000E+00
      2.26488588160379E-18   0.00000000000000E+00   0.00000000000000E+00   0.00000000000000E+00   0.00000000000000E+00
     -4.16513943079320E-19   2.07715917546030E-34  -4.16513943079320E-19  -1.18792587474106E-17   3.93341015703704E-03
      3.93340999838302E-03   0.00000000000000E+00   0.00000000000000E+00   7.26820352147736E-10  -1.06970999882862E-34
      7.26820352147736E-10   4.66962673871051E-18
      5.99394779654321E-03
      0.00000000000000E+00   1.97804672709942E-10   0.00000000000000E+00   0.00000000000000E+00  -9.10985704375809E-10
     -1.21116186600218E-34  -9.10985704375809E-10   4.94405453326587E-18   0.00000000000000E+00   0.00000000000000E+00
      0.00000000000000E+00   0.00000000000000E+00   0.00000000000000E+00   0.00000000000000E+00   0.00000000000000E+00
      2.24924168319302E-18   0.00000000000000E+00   0.00000000000000E+00   0.00000000000000E+00   0.00000000000000E+00
      2.15256169158869E-19   2.12952291178126E-34   2.15256169158869E-19  -1.18785066267599E-17   5.15479510502716E-03
      5.15479490616494E-03   0.00000000000000E+00   0.00000000000000E+00   9.10985704160552E-10  -9.18361045779071E-35
      9.10985704160552E-10   4.68521041030099E-18
      7.54671625755391E-03
      0.00000000000000E+00   2.37232165340074E-10   0.00000000000000E+00   0.00000000000000E+00  -1.09251734847664E-09
     -1.39853664304979E-34  -1.09251734847664E-09   4.94329858076407E-18   0.00000000000000E+00   0.00000000000000E+00
      0.00000000000000E+00   0.00000000000000E+00   0.00000000000000E+00   0.00000000000000E+00   0.00000000000000E+00
      2.23214204858581E-18   0.00000000000000E+00   0.00000000000000E+00   0.00000000000000E+00   0.00000000000000E+00
      1.55215704797226E-20   2.54654009752502E-34   1.55215704797228E-20  -1.18776970698045E-17   6.49017598149636E-03
      6.49017574299767E-03   0.00000000000000E+00   0.00000000000000E+00   1.09251734846112E-09  -1.14800345447523E-34
      1.09251734846112E-09   4.70225644045462E-18
      9.24440977492561E-03
      0.00000000000000E+00   2.75647064543734E-10   0.00000000000000E+00   0.00000000000000E+00  -1.26937142811472E-09
     -1.10422088525180E-34  -1.26937142811472E-09   4.94247229524668E-18   0.00000000000000E+00   0.00000000000000E+00
      0.00000000000000E+00   0.00000000000000E+00   0.00000000000000E+00   0.00000000000000E+00   0.00000000000000E+00
      2.21345194266846E-18   0.00000000000000E+00   0.00000000000000E+00   0.00000000000000E+00   0.00000000000000E+00
     -2.41738489339827E-19   2.07433547895998E-34  -2.41738489339827E-19  -1.18768269765454E-17   7.95019240643603E-03
      7.95019212931957E-03   0.00000000000000E+00   0.00000000000000E+00   1.26937142835646E-09  -9.70114593708183E-35
      1.26937142835646E-09   4.72090273863028E-18
      1.11005546872520E-02
      0.00000000000000E+00   3.12596957008795E-10   0.00000000000000E+00   0.00000000000000E+00  -1.43947017476150E-09
     -1.32615351466204E-34  -1.43947017476150E-09   4.94156914960388E-18   0.00000000000000E+00   0.00000000000000E+00
      0.00000000000000E+00   0.00000000000000E+00   0.00000000000000E+00   0.00000000000000E+00   0.00000000000000E+00
      2.19302385282878E-18   0.00000000000000E+00   0.00000000000000E+00   0.00000000000000E+00   0.00000000000000E+00
      4.70996699848335E-20   2.12568700080028E-34   4.70996699848337E-20  -1.18758933324900E-17   9.54647703103672E-03
      9.54647671677600E-03   0.00000000000000E+00   0.00000000000000E+00   1.43947017471440E-09  -7.99533486138243E-35
      1.43947017471440E-09   4.74130033005734E-18
      1.31299397913955E-02
      0.00000000000000E+00   3.47637029141903E-10   0.00000000000000E+00   0.00000000000000E+00  -1.60077364034631E-09
     -1.32896471371243E-34  -1.60077364034631E-09   4.94058201292532E-18   0.00000000000000E+00   0.00000000000000E+00
      0.00000000000000E+00   0.00000000000000E+00   0.00000000000000E+00   0.00000000000000E+00   0.00000000000000E+00
      2.17069664082567E-18   0.00000000000000E+00   0.00000000000000E+00   0.00000000000000E+00   0.00000000000000E+00
     -2.97324881915234E-19   2.22612477120811E-34  -2.97324881915234E-19  -1.18748932720244E-17   1.12917482206002E-02
      1.12917478711158E-02   0.00000000000000E+00   0.00000000000000E+00   1.60077364064363E-09  -8.97160057495680E-35
      1.60077364064363E-09   4.76361461827343E-18
      1.53487341719258E-02
      0.00000000000000E+00   3.80349632596882E-10   0.00000000000000E+00   0.00000000000000E+00  -1.75137015021496E-09
     -1.30763166887436E-34  -1.75137015021496E-09   4.93950309468557E-18   0.00000000000000E+00   0.00000000000000E+00
      0.00000000000000E+00   0.00000000000000E+00   0.00000000000000E+00   0.00000000000000E+00   0.00000000000000E+00
      2.14629428814076E-18   0.00000000000000E+00   0.00000000000000E+00   0.00000000000000E+00   0.00000000000000E+00
     -8.92925690502648E-20   2.04960369253731E-34  -8.92925690502646E-20  -1.18738241532469E-17   1.31999113878562E-02
      1.31999110054886E-02   0.00000000000000E+00   0.00000000000000E+00   1.75137015030425E-09  -7.41972023662950E-35
      1.75137015030425E-09   4.78802677042056E-18
      1.77746160279722E-02
      0.00000000000000E+00   4.10367454275847E-10   0.00000000000000E+00   0.00000000000000E+00  -1.88958331697793E-09
     -7.65521030282974E-35  -1.88958331697793E-09   4.93832388369087E-18   0.00000000000000E+00   0.00000000000000E+00
      0.00000000000000E+00   0.00000000000000E+00   0.00000000000000E+00   0.00000000000000E+00   0.00000000000000E+00
      2.11962452440136E-18   0.00000000000000E+00   0.00000000000000E+00   0.00000000000000E+00   0.00000000000000E+00
     -2.15715923869982E-20   1.41222080037716E-34  -2.15715923869981E-20  -1.18726836450818E-17   1.52861697840561E-02
      1.52861693715151E-02   0.00000000000000E+00   0.00000000000000E+00   1.88958331699950E-09  -6.46699770094187E-35
      1.88958331699950E-09   4.81473523698956E-18
      2.04269135239163E-02
      0.00000000000000E+00   4.37399125414604E-10   0.00000000000000E+00   0.00000000000000E+00  -2.01408971237582E-09
     -1.48276483456651E-34  -2.01408971237582E-09   4.93703508129933E-18   0.00000000000000E+00   0.00000000000000E+00
      0.00000000000000E+00   0.00000000000000E+00   0.00000000000000E+00   0.00000000000000E+00   0.00000000000000E+00
      2.09047732828100E-18   0.00000000000000E+00   0.00000000000000E+00   0.00000000000000E+00   0.00000000000000E+00
     -1.14332683913169E-19   2.15879193875004E-34  -1.14332683913169E-19  -1.18714698286886E-17   1.75671456305680E-02
      1.75671451908563E-02   0.00000000000000E+00   0.00000000000000E+00   2.01408971249015E-09  -6.76027104183536E-35
      2.01408971249015E-09   4.84395741910832E-18
      2.33267587861485E-02
      0.00000000000000E+00   4.61256562721169E-10   0.00000000000000E+00   0.00000000000000E+00  -2.12404518063922E-09
     -1.00920065304829E-34  -2.12404518063922E-09   4.93562652828471E-18   0.00000000000000E+00   0.00000000000000E+00
      0.00000000000000E+00   0.00000000000000E+00   0.00000000000000E+00   0.00000000000000E+00   0.00000000000000E+00
      2.05862328734460E-18   0.00000000000000E+00   0.00000000000000E+00   0.00000000000000E+00   0.00000000000000E+00
      1.69010533975952E-20   1.69899527647141E-34   1.69010533975953E-20  -1.18701813127578E-17   2.00610125560877E-02
      2.00610120923972E-02   0.00000000000000E+00   0.00000000000000E+00   2.12404518062232E-09  -6.89794623423115E-35
      2.12404518062232E-09   4.87593149712844E-18
      2.64972562728556E-02
      0.00000000000000E+00   4.81881757579397E-10   0.00000000000000E+00   0.00000000000000E+00  -2.21920732561574E-09
     -1.29502741658743E-34  -2.21920732561574E-09   4.93408712481710E-18   0.00000000000000E+00   0.00000000000000E+00
      0.00000000000000E+00   0.00000000000000E+00   0.00000000000000E+00   0.00000000000000E+00   0.00000000000000E+00
      2.02381180412731E-18   0.00000000000000E+00   0.00000000000000E+00   0.00000000000000E+00   0.00000000000000E+00
     -2.54438060820286E-19   1.93468108659922E-34  -2.54438060820286E-19  -1.18688173649858E-17   2.27876403946559E-02
      2.27876399102372E-02   0.00000000000000E+00   0.00000000000000E+00   2.21920732587018E-09  -6.39653670011789E-35
      2.21920732587018E-09   4.91091843604135E-18
      2.99636668583222E-02
      0.00000000000000E+00   4.99371621783318E-10   0.00000000000000E+00   0.00000000000000E+00  -2.30004966052085E-09
     -9.77004026354400E-35  -2.30004966052085E-09   4.93240474265967E-18   0.00000000000000E+00   0.00000000000000E+00
      0.00000000000000E+00   0.00000000000000E+00   0.00000000000000E+00   0.00000000000000E+00   0.00000000000000E+00
      1.98576912795551E-18   0.00000000000000E+00   0.00000000000000E+00   0.00000000000000E+00   0.00000000000000E+00
     -1.61377570250883E-19   1.47461048218993E-34  -1.61377570250883E-19  -1.18673780527871E-17   2.57687534981571E-02
      2.57687529961640E-02   0.00000000000000E+00   0.00000000000000E+00   2.30004966068222E-09  -4.97606455835535E-35
      2.30004966068222E-09   4.94920418217193E-18
      3.37536090984323E-02
      0.00000000000000E+00   5.13993995381665E-10   0.00000000000000E+00   0.00000000000000E+00  -2.36783369883704E-09
     -1.41606130118819E-34  -2.36783369883704E-09   4.93056612912084E-18   0.00000000000000E+00   0.00000000000000E+00
      0.00000000000000E+00   0.00000000000000E+00   0.00000000000000E+00   0.00000000000000E+00   0.00000000000000E+00
      1.94419620161201E-18   0.00000000000000E+00   0.00000000000000E+00   0.00000000000000E+00   0.00000000000000E+00
     -1.68332839507813E-19   1.83874344806989E-34  -1.68332839507813E-19  -1.18658644020410E-17   2.90281038246517E-02
      2.90281033079697E-02   0.00000000000000E+00   0.00000000000000E+00   2.36783369900537E-09  -4.22682146881704E-35
      2.36783369900537E-09   4.99110207130821E-18
      3.78972792809526E-02
      0.00000000000000E+00   5.26191443504648E-10   0.00000000000000E+00   0.00000000000000E+00  -2.42462552479256E-09
     -1.16322405587583E-34  -2.42462552479256E-09   4.92855680181700E-18   0.00000000000000E+00   0.00000000000000E+00
      0.00000000000000E+00   0.00000000000000E+00   0.00000000000000E+00   0.00000000000000E+00   0.00000000000000E+00
      1.89876629992651E-18   0.00000000000000E+00   0.00000000000000E+00   0.00000000000000E+00   0.00000000000000E+00
      3.85464872612526E-19   1.57203761868557E-34   3.85464872612526E-19  -1.18642785673167E-17   3.25916601816192E-02
      3.25916596526903E-02   0.00000000000000E+00   0.00000000000000E+00   2.42462552440710E-09  -4.08813562809738E-35
      2.42462552440710E-09   5.03695546557318E-18
      4.24276920138415E-02
      0.00000000000000E+00   5.36566903457622E-10   0.00000000000000E+00   0.00000000000000E+00  -2.47322777507948E-09
     -1.40509603722025E-34  -2.47322777507948E-09   4.92636093356455E-18   0.00000000000000E+00   0.00000000000000E+00
      0.00000000000000E+00   0.00000000000000E+00   0.00000000000000E+00   0.00000000000000E+00   0.00000000000000E+00
      1.84912243464612E-18   0.00000000000000E+00   0.00000000000000E+00   0.00000000000000E+00   0.00000000000000E+00
      5.00299692926386E-19   1.73887942898156E-34   5.00299692926386E-19  -1.18626240049554E-17   3.64878151319037E-02
      3.64878145925657E-02   0.00000000000000E+00   0.00000000000000E+00   2.47322777457918E-09  -3.33783391761312E-35
      2.47322777457918E-09   5.08714063674480E-18
      4.73809432684667E-02
      0.00000000000000E+00   5.45836215721761E-10   0.00000000000000E+00   0.00000000000000E+00  -2.51696123201828E-09
     -1.10968396854041E-34  -2.51696123201828E-09   4.92396122748492E-18   0.00000000000000E+00   0.00000000000000E+00
      0.00000000000000E+00   0.00000000000000E+00   0.00000000000000E+00   0.00000000000000E+00   0.00000000000000E+00
      1.79487452089025E-18   0.00000000000000E+00   0.00000000000000E+00   0.00000000000000E+00   0.00000000000000E+00
     -2.85984318692331E-20   1.42454008210267E-34  -2.85984318692329E-20  -1.18609056709656E-17   4.07476112108814E-02
      4.07476106622555E-02   0.00000000000000E+00   0.00000000000000E+00   2.51696123204688E-09  -3.14856113562255E-35
      2.51696123204688E-09   5.14206992259036E-18
      5.27964979735236E-02
      0.00000000000000E+00   5.54738423704822E-10   0.00000000000000E+00   0.00000000000000E+00  -2.55924514769252E-09
     -1.30870306449636E-34  -2.55924514769252E-09   4.92133878151269E-18   0.00000000000000E+00   0.00000000000000E+00
      0.00000000000000E+00   0.00000000000000E+00   0.00000000000000E+00   0.00000000000000E+00   0.00000000000000E+00
      1.73559627134975E-18   0.00000000000000E+00   0.00000000000000E+00   0.00000000000000E+00   0.00000000000000E+00
      1.51801247997971E-19   1.63013124091827E-34   1.51801247997971E-19  -1.18591302271129E-17   4.54049882572303E-02
      4.54049876996976E-02   0.00000000000000E+00   0.00000000000000E+00   2.55924514754072E-09  -3.21428176421914E-35
      2.55924514754072E-09   5.20219517425051E-18
      5.87175044510525E-02
      0.00000000000000E+00   5.63929259839776E-10   0.00000000000000E+00   0.00000000000000E+00  -2.60309830018358E-09
     -1.11964131195996E-34  -2.60309830018358E-09   4.91847294067196E-18   0.00000000000000E+00   0.00000000000000E+00
      0.00000000000000E+00   0.00000000000000E+00   0.00000000000000E+00   0.00000000000000E+00   0.00000000000000E+00
      1.67082180200178E-18   0.00000000000000E+00   0.00000000000000E+00   0.00000000000000E+00   0.00000000000000E+00
      1.79270006915362E-19   1.33437832762703E-34   1.79270006915362E-19  -1.18573062630108E-17   5.04970538279052E-02
      5.04970532611896E-02   0.00000000000000E+00   0.00000000000000E+00   2.60309830000431E-09  -2.14737015667065E-35
      2.60309830000431E-09   5.26801152033702E-18
      6.51516648233006E-02
      0.00000000000000E+00   5.73869034353231E-10   0.00000000000000E+00   0.00000000000000E+00  -2.65063076921669E-09
     -1.29021744897987E-34  -2.65063076921669E-09   4.91536022725993E-18   0.00000000000000E+00   0.00000000000000E+00
      0.00000000000000E+00   0.00000000000000E+00   0.00000000000000E+00   0.00000000000000E+00   0.00000000000000E+00
      1.60047340611376E-18   0.00000000000000E+00   0.00000000000000E+00   0.00000000000000E+00   0.00000000000000E+00
      5.14741747478256E-20   1.42428210019757E-34   5.14741747478258E-20  -1.18554555053067E-17   5.60304317480385E-02
      5.60304311714033E-02   0.00000000000000E+00   0.00000000000000E+00   2.65063076916522E-09  -1.34064651217704E-35
      2.65063076916522E-09   5.33962187193301E-18
      7.21434524278101E-02
      0.00000000000000E+00   5.84920756637321E-10   0.00000000000000E+00   0.00000000000000E+00  -2.70354002742997E-09
     -8.16926890226228E-35  -2.70354002742997E-09   4.91197939090658E-18   0.00000000000000E+00   0.00000000000000E+00
      0.00000000000000E+00   0.00000000000000E+00   0.00000000000000E+00   0.00000000000000E+00   0.00000000000000E+00
      1.52407151395928E-18   0.00000000000000E+00   0.00000000000000E+00   0.00000000000000E+00   0.00000000000000E+00
      1.97241831110467E-19   9.87207909375059E-35   1.97241831110467E-19  -1.18535905478919E-17   6.20433690879167E-02
      6.20433685002658E-02   0.00000000000000E+00   0.00000000000000E+00   2.70354002723273E-09  -1.70281019148831E-35
      2.70354002723273E-09   5.41753964302605E-18
      7.97411949580438E-02
      0.00000000000000E+00   5.97269323144943E-10   0.00000000000000E+00   0.00000000000000E+00  -2.76270041123314E-09
     -1.17113774811072E-34  -2.76270041123314E-09   4.90830736583550E-18   0.00000000000000E+00   0.00000000000000E+00
      0.00000000000000E+00   0.00000000000000E+00   0.00000000000000E+00   0.00000000000000E+00   0.00000000000000E+00
      1.44109523085013E-18   0.00000000000000E+00   0.00000000000000E+00   0.00000000000000E+00   0.00000000000000E+00
      7.37916777274233E-20   1.27234918259195E-34   7.37916777274234E-20  -1.18517263588431E-17   6.85774276639177E-02
      6.85774270639722E-02   0.00000000000000E+00   0.00000000000000E+00   2.76270041115935E-09  -1.01211434481231E-35
      2.76270041115935E-09   5.50232376215745E-18
      8.79974085075645E-02
      0.00000000000000E+00   6.10968167584575E-10   0.00000000000000E+00   0.00000000000000E+00  -2.82836006547916E-09
     -1.14653765308260E-34  -2.82836006547916E-09   4.90431911601833E-18   0.00000000000000E+00   0.00000000000000E+00
      0.00000000000000E+00   0.00000000000000E+00   0.00000000000000E+00   0.00000000000000E+00   0.00000000000000E+00
      1.35097877235228E-18   0.00000000000000E+00   0.00000000000000E+00   0.00000000000000E+00   0.00000000000000E+00
      5.00394250708647E-20   1.23188481257644E-34   5.00394250708648E-20  -1.18498805113595E-17   7.56777713165054E-02
      7.56777707029279E-02   0.00000000000000E+00   0.00000000000000E+00   2.82836006542912E-09  -8.53471594938452E-36
      2.82836006542912E-09   5.59458262298893E-18
      9.69691605647102E-02
      0.00000000000000E+00   6.26069376319733E-10   0.00000000000000E+00   0.00000000000000E+00  -2.90079223463349E-09
     -1.39980856900237E-34  -2.90079223463349E-09   4.89998745514941E-18   0.00000000000000E+00   0.00000000000000E+00
      0.00000000000000E+00   0.00000000000000E+00   0.00000000000000E+00   0.00000000000000E+00   0.00000000000000E+00
      1.25310753113353E-18   0.00000000000000E+00   0.00000000000000E+00   0.00000000000000E+00   0.00000000000000E+00
      1.21003226085564E-19   1.47483111637419E-34   1.21003226085564E-19  -1.18480733328480E-17   8.33934780856508E-02
      8.33934774570473E-02   0.00000000000000E+00   0.00000000000000E+00   2.90079223451249E-09  -7.50225473718233E-36
      2.90079223451249E-09   5.69497834656510E-18
      1.06718464466809E-01
      0.00000000000000E+00   6.42699976687192E-10   0.00000000000000E+00   0.00000000000000E+00  -2.98065441011518E-09
     -1.16655324893706E-34  -2.98065441011518E-09   4.89528285768085E-18   0.00000000000000E+00   0.00000000000000E+00
      0.00000000000000E+00   0.00000000000000E+00   0.00000000000000E+00   0.00000000000000E+00   0.00000000000000E+00
      1.14681383184208E-18   0.00000000000000E+00   0.00000000000000E+00   0.00000000000000E+00   0.00000000000000E+00
     -1.32619229212816E-19   1.22149693276977E-34  -1.32619229212816E-19  -1.18463280811242E-17   9.17778794414554E-02
      9.17778787963135E-02   0.00000000000000E+00   0.00000000000000E+00   2.98065441024780E-09  -5.49436838327149E-36
      2.98065441024780E-09   5.80423139160123E-18
      1.16718464466809E-01
      0.00000000000000E+00   6.60025184072335E-10   0.00000000000000E+00   0.00000000000000E+00  -3.06396420925776E-09
     -8.35058836919140E-35  -3.06396420925776E-09   4.89045980251121E-18   0.00000000000000E+00   0.00000000000000E+00
      0.00000000000000E+00   0.00000000000000E+00   0.00000000000000E+00   0.00000000000000E+00   0.00000000000000E+00
      1.03784599756072E-18   0.00000000000000E+00   0.00000000000000E+00   0.00000000000000E+00   0.00000000000000E+00
      1.66211077820593E-19   8.75055228060500E-35   1.66211077820593E-19  -1.18447579001200E-17   1.00377879441455E-01
      1.00377878779104E-01   0.00000000000000E+00   0.00000000000000E+00   3.06396420909155E-09  -3.99963911413601E-36
      3.06396420909155E-09   5.91645210004806E-18
      1.26718464466809E-01
      0.00000000000000E+00   6.77671446866824E-10   0.00000000000000E+00   0.00000000000000E+00  -3.14892583061275E-09
     -1.18237313881438E-34  -3.14892583061275E-09   4.88563916119920E-18   0.00000000000000E+00   0.00000000000000E+00
      0.00000000000000E+00   0.00000000000000E+00   0.00000000000000E+00   0.00000000000000E+00   0.00000000000000E+00
      9.28933112905281E-19   0.00000000000000E+00   0.00000000000000E+00   0.00000000000000E+00   0.00000000000000E+00
     -9.12985892544198E-20   1.20909848446260E-34  -9.12985892544197E-20  -1.18433948920088E-17   1.08977879441455E-01
      1.08977878761587E-01   0.00000000000000E+00   0.00000000000000E+00   3.14892583070405E-09  -2.67253456482184E-36
      3.14892583070405E-09   6.02882261790434E-18
      1.36718464466809E-01
      0.00000000000000E+00   6.95685909147559E-10   0.00000000000000E+00   0.00000000000000E+00  -3.23576351226692E-09
     -1.25342739997695E-34  -3.23576351226692E-09   4.88082081307577E-18   0.00000000000000E+00   0.00000000000000E+00
      0.00000000000000E+00   0.00000000000000E+00   0.00000000000000E+00   0.00000000000000E+00   0.00000000000000E+00
      8.20070837106696E-19   0.00000000000000E+00   0.00000000000000E+00   0.00000000000000E+00   0.00000000000000E+00
      1.93310226612547E-20   1.27122506743188E-34   1.93310226612548E-20  -1.18422248343303E-17   1.17577879441455E-01
      1.17577878743703E-01   0.00000000000000E+00   0.00000000000000E+00   3.23576351224759E-09  -1.77976674549271E-36
      3.23576351224759E-09   6.14133318414778E-18
      1.46718464466809E-01
      0.00000000000000E+00   7.14098739311335E-10   0.00000000000000E+00   0.00000000000000E+00  -3.32462208137439E-09
     -1.04941596468491E-34  -3.32462208137439E-09   4.87600464771768E-18   0.00000000000000E+00   0.00000000000000E+00
      0.00000000000000E+00   0.00000000000000E+00   0.00000000000000E+00   0.00000000000000E+00   0.00000000000000E+00
      7.11255352646964E-19   0.00000000000000E+00   0.00000000000000E+00   0.00000000000000E+00   0.00000000000000E+00
      4.30092171998163E-20   1.06233952212087E-34   4.30092171998164E-20  -1.18412347790423E-17   1.26177879441455E-01
      1.26177878725417E-01   0.00000000000000E+00   0.00000000000000E+00   3.32462208133138E-09  -1.29235574359601E-36
      3.32462208133138E-09   6.25397477867766E-18
      1.56718464466809E-01
      0.00000000000000E+00   7.32924217481866E-10   0.00000000000000E+00   0.00000000000000E+00  -3.41557073502764E-09
     -1.30866090712687E-34  -3.41557073502764E-09   4.87119056370625E-18   0.00000000000000E+00   0.00000000000000E+00
      0.00000000000000E+00   0.00000000000000E+00   0.00000000000000E+00   0.00000000000000E+00   0.00000000000000E+00
      6.02483282891568E-19   0.00000000000000E+00   0.00000000000000E+00   0.00000000000000E+00   0.00000000000000E+00
      1.40574074101151E-19   1.31843957238728E-34   1.40574074101151E-19  -1.18404128939078E-17   1.34777879441455E-01
      1.34777878706719E-01   0.00000000000000E+00   0.00000000000000E+00   3.41557073488707E-09  -9.77866526040677E-37
      3.41557073488707E-09   6.36673904730998E-18
      1.66718464466809E-01
      0.00000000000000E+00   7.52165971526273E-10   0.00000000000000E+00   0.00000000000000E+00  -3.50862820054974E-09
     -1.30329979128845E-34  -3.50862820054974E-09   4.86637847009426E-18   0.00000000000000E+00   0.00000000000000E+00
      0.00000000000000E+00   0.00000000000000E+00   0.00000000000000E+00   0.00000000000000E+00   0.00000000000000E+00
      4.93751662373691E-19   0.00000000000000E+00   0.00000000000000E+00   0.00000000000000E+00   0.00000000000000E+00
     -2.04819121762314E-19   1.31166493965502E-34  -2.04819121762314E-19  -1.18397483770574E-17   1.43377879441455E-01
      1.43377878687606E-01   0.00000000000000E+00   0.00000000000000E+00   3.50862820075456E-09  -8.36514836656574E-37
      3.50862820075456E-09   6.47961824458947E-18
      1.76718464466809E-01
      0.00000000000000E+00   7.71822121226822E-10   0.00000000000000E+00   0.00000000000000E+00  -3.60378819175456E-09
     -1.28197646114227E-34  -3.60378819175456E-09   4.86156828925957E-18   0.00000000000000E+00   0.00000000000000E+00
      0.00000000000000E+00   0.00000000000000E+00   0.00000000000000E+00   0.00000000000000E+00   0.00000000000000E+00
      3.85057919630965E-19   0.00000000000000E+00   0.00000000000000E+00   0.00000000000000E+00   0.00000000000000E+00
     -1.69398323756602E-19   1.28813975042505E-34  -1.69398323756602E-19  -1.18392313971320E-17   1.51977879441455E-01
      1.51977878668086E-01   0.00000000000000E+00   0.00000000000000E+00   3.60378819192395E-09  -6.16328928277674E-37
      3.60378819192395E-09   6.59260518824144E-18
      1.86718464466809E-01
      0.00000000000000E+00   7.91890633002398E-10   0.00000000000000E+00   0.00000000000000E+00  -3.70104483948949E-09