DF-ISE text

Info {
  version   = 1.0
  type      = xyplot
  datasets  = [
    "time"
    "source OuterVoltage" "source InnerVoltage" "source QuasiFermiPotential" "source DisplacementCurrent" "source eCurrent"
    "source hCurrent" "source TotalCurrent" "source Charge" "gate OuterVoltage" "gate InnerVoltage"
    "gate QuasiFermiPotential" "gate DisplacementCurrent" "gate eCurrent" "gate hCurrent" "gate TotalCurrent"
    "gate Charge" "substrate OuterVoltage" "substrate InnerVoltage" "substrate QuasiFermiPotential" "substrate DisplacementCurrent"
    "substrate eCurrent" "substrate hCurrent" "substrate TotalCurrent" "substrate Charge" "drain OuterVoltage"
    "drain InnerVoltage" "drain QuasiFermiPotential" "drain DisplacementCurrent" "drain eCurrent" "drain hCurrent"
    "drain TotalCurrent" "drain Charge" ]
  functions = [
    Time
    OuterVoltage InnerVoltage QuasiFermiPotential DisplacementCurrent eCurrent
    hCurrent TotalCurrent Charge OuterVoltage InnerVoltage
    QuasiFermiPotential DisplacementCurrent eCurrent hCurrent TotalCurrent
    Charge OuterVoltage InnerVoltage QuasiFermiPotential DisplacementCurrent
    eCurrent hCurrent TotalCurrent Charge OuterVoltage
    InnerVoltage QuasiFermiPotential DisplacementCurrent eCurrent hCurrent
    TotalCurrent Charge ]
}

Data {
      0.00000000000000E+00
      0.00000000000000E+00   0.00000000000000E+00   0.00000000000000E+00   0.00000000000000E+00   1.75284305765044E-20
     -1.17544865738228E-34   1.75284305765043E-20   5.23369675599633E-18   0.00000000000000E+00   0.00000000000000E+00
      0.00000000000000E+00   0.00000000000000E+00   0.00000000000000E+00   0.00000000000000E+00   0.00000000000000E+00
      4.87066764023152E-18   0.00000000000000E+00   0.00000000000000E+00   0.00000000000000E+00   0.00000000000000E+00
     -1.69153388952286E-20   2.65576706064503E-34  -1.69153388952284E-20  -1.44575938034389E-17   0.00000000000000E+00
      0.00000000000000E+00   0.00000000000000E+00   0.00000000000000E+00  -6.13091681275727E-22  -1.48031840326275E-34
     -6.13091681275875E-22   4.35322940721102E-18
      0.00000000000000E+00
      0.00000000000000E+00   0.00000000000000E+00   0.00000000000000E+00   0.00000000000000E+00  -3.10798732105254E-19
     -1.17818484428019E-34  -3.10798732105254E-19   5.23204829825256E-18   0.00000000000000E+00   0.00000000000000E+00
      0.00000000000000E+00   0.00000000000000E+00   0.00000000000000E+00   0.00000000000000E+00   0.00000000000000E+00
      4.86392546254126E-18   0.00000000000000E+00   0.00000000000000E+00   0.00000000000000E+00   0.00000000000000E+00
      2.48138632128333E-19   2.68716902003942E-34   2.48138632128333E-19  -1.44478907861580E-17   0.00000000000000E+00
      0.00000000000000E+00   0.00000000000000E+00   0.00000000000000E+00   6.26600999769211E-20  -1.50898417575923E-34
      6.26600999769210E-20   4.35191702536409E-18
      1.00000000000000E-03
      0.00000000000000E+00   1.90522546873378E-11   0.00000000000000E+00   0.00000000000000E+00  -8.90546522717022E-11
     -1.02758416100940E-34  -8.90546522717022E-11   5.23186522998239E-18   0.00000000000000E+00   0.00000000000000E+00
      0.00000000000000E+00   0.00000000000000E+00   0.00000000000000E+00   0.00000000000000E+00   0.00000000000000E+00
      4.85285925627716E-18   0.00000000000000E+00   0.00000000000000E+00   0.00000000000000E+00   0.00000000000000E+00
      9.87683861536049E-20   2.59113103743221E-34   9.87683861536051E-20  -1.44474434951490E-17   8.60000000000000E-04
      8.59999980893529E-04   0.00000000000000E+00   0.00000000000000E+00   8.90546521729338E-11  -1.56354687642281E-34
      8.90546521729338E-11   4.36271900888949E-18
      2.08666666666667E-03
      0.00000000000000E+00   3.86138725876697E-11   0.00000000000000E+00   0.00000000000000E+00  -1.80483950757641E-10
     -1.16916502162945E-34  -1.80483950757641E-10   5.23166633131575E-18   0.00000000000000E+00   0.00000000000000E+00
      0.00000000000000E+00   0.00000000000000E+00   0.00000000000000E+00   0.00000000000000E+00   0.00000000000000E+00
      4.84083680929682E-18   0.00000000000000E+00   0.00000000000000E+00   0.00000000000000E+00   0.00000000000000E+00
      9.60456410096663E-16   2.46530755626567E-34   9.60456410096663E-16  -1.44469642531451E-17   1.79453333333333E-03
      1.79453329460947E-03   0.00000000000000E+00   0.00000000000000E+00   1.80482990301231E-10  -1.29614253463622E-34
      1.80482990301231E-10   4.37446111253248E-18
      3.28200000000000E-03
      0.00000000000000E+00   5.87806582113045E-11   0.00000000000000E+00   0.00000000000000E+00  -2.74731834484465E-10
     -1.19460589896854E-34  -2.74731834484465E-10   5.23144758496827E-18   0.00000000000000E+00   0.00000000000000E+00
      0.00000000000000E+00   0.00000000000000E+00   0.00000000000000E+00   0.00000000000000E+00   0.00000000000000E+00
      4.82761546715098E-18   0.00000000000000E+00   0.00000000000000E+00   0.00000000000000E+00   0.00000000000000E+00
      1.31951923731631E-15   2.70996313198876E-34   1.31951923731631E-15  -1.44464451795466E-17   2.82252000000000E-03
      2.82251994105220E-03   0.00000000000000E+00   0.00000000000000E+00   2.74730514965228E-10  -1.51535723302022E-34
      2.74730514965228E-10   4.38738212742734E-18
      4.59686666666667E-03
      0.00000000000000E+00   7.93946529094257E-11   0.00000000000000E+00   0.00000000000000E+00  -3.71057712022484E-10
     -1.20708432343546E-34  -3.71057712022484E-10   5.23120701415869E-18   0.00000000000000E+00   0.00000000000000E+00
      0.00000000000000E+00   0.00000000000000E+00   0.00000000000000E+00   0.00000000000000E+00   0.00000000000000E+00
      4.81307597208510E-18   0.00000000000000E+00   0.00000000000000E+00   0.00000000000000E+00   0.00000000000000E+00
     -5.14590812940275E-20   2.50113620008084E-34  -5.14590812940273E-20  -1.44458838547068E-17   3.95330533333333E-03
      3.95330525371362E-03   0.00000000000000E+00   0.00000000000000E+00   3.71057712073943E-10  -1.29405187664538E-34
      3.71057712073943E-10   4.40160086846302E-18
      6.03445422222222E-03
      0.00000000000000E+00   1.00151681211583E-10   0.00000000000000E+00   0.00000000000000E+00  -4.68040203223569E-10
     -1.13522612131673E-34  -4.68040203223569E-10   5.23094404900607E-18   0.00000000000000E+00   0.00000000000000E+00
      0.00000000000000E+00   0.00000000000000E+00   0.00000000000000E+00   0.00000000000000E+00   0.00000000000000E+00
      4.79718413794523E-18   0.00000000000000E+00   0.00000000000000E+00   0.00000000000000E+00   0.00000000000000E+00
     -9.59422811491012E-20   2.46754714777798E-34  -9.59422811491009E-20  -1.44452815397908E-17   5.18963063111111E-03
      5.18963053067582E-03   0.00000000000000E+00   0.00000000000000E+00   4.68040203319511E-10  -1.33232102646126E-34
      4.68040203319511E-10   4.41715335283952E-18
      7.60621661629630E-03
      0.00000000000000E+00   1.20854846150163E-10   0.00000000000000E+00   0.00000000000000E+00  -5.64757174701055E-10
     -1.07820142639238E-34  -5.64757174701055E-10   5.23065660924441E-18   0.00000000000000E+00   0.00000000000000E+00
      0.00000000000000E+00   0.00000000000000E+00   0.00000000000000E+00   0.00000000000000E+00   0.00000000000000E+00
      4.77981454235222E-18   0.00000000000000E+00   0.00000000000000E+00   0.00000000000000E+00   0.00000000000000E+00
      1.50793351410319E-19   2.32924737137929E-34   1.50793351410319E-19  -1.44446364101827E-17   6.54134629001482E-03
      6.54134616881803E-03   0.00000000000000E+00   0.00000000000000E+00   5.64757174550261E-10  -1.25104594498691E-34
      5.64757174550261E-10   4.43416525858612E-18
      9.32467683381729E-03
      0.00000000000000E+00   1.41288747067832E-10   0.00000000000000E+00   0.00000000000000E+00  -6.60201341564258E-10
     -1.30607005476482E-34  -6.60201341564258E-10   5.23034242185685E-18   0.00000000000000E+00   0.00000000000000E+00
      0.00000000000000E+00   0.00000000000000E+00   0.00000000000000E+00   0.00000000000000E+00   0.00000000000000E+00
      4.76083017999343E-18   0.00000000000000E+00   0.00000000000000E+00   0.00000000000000E+00   0.00000000000000E+00
     -7.10042520423972E-20   2.46603249125121E-34  -7.10042520423969E-20  -1.44439467988717E-17   8.01922207708287E-03
      8.01922193539460E-03   0.00000000000000E+00   0.00000000000000E+00   6.60201341635262E-10  -1.15996243648639E-34
      6.60201341635262E-10   4.45277419702140E-18
      1.12035266716402E-02
      0.00000000000000E+00   1.61223333246720E-10   0.00000000000000E+00   0.00000000000000E+00  -7.53297768703506E-10
     -1.42120324961480E-34  -7.53297768703506E-10   5.22999900321620E-18   0.00000000000000E+00   0.00000000000000E+00
      0.00000000000000E+00   0.00000000000000E+00   0.00000000000000E+00   0.00000000000000E+00   0.00000000000000E+00
      4.74008139673593E-18   0.00000000000000E+00   0.00000000000000E+00   0.00000000000000E+00   0.00000000000000E+00
     -4.34949831594344E-20   2.64818750371811E-34  -4.34949831594341E-20  -1.44432112577099E-17   9.63503293761060E-03
      9.63503277593155E-03   0.00000000000000E+00   0.00000000000000E+00   7.53297768747001E-10  -1.22698425410331E-34
      7.53297768747001E-10   4.47313085775783E-18
      1.32577358276600E-02
      0.00000000000000E+00   1.80419740723964E-10   0.00000000000000E+00   0.00000000000000E+00  -8.42931348555918E-10
     -1.36622414662749E-34  -8.42931348555918E-10   5.22962363954984E-18   0.00000000000000E+00   0.00000000000000E+00
      0.00000000000000E+00   0.00000000000000E+00   0.00000000000000E+00   0.00000000000000E+00   0.00000000000000E+00
      4.71740472522881E-18   0.00000000000000E+00   0.00000000000000E+00   0.00000000000000E+00   0.00000000000000E+00
     -7.67659971977114E-20   2.47661587698321E-34  -7.67659971977111E-20  -1.44424286293000E-17   1.14016528117876E-02
      1.14016526308579E-02   0.00000000000000E+00   0.00000000000000E+00   8.42931348632685E-10  -1.11039173035573E-34
      8.42931348632685E-10   4.49540026452137E-18
      1.55036711715749E-02
      0.00000000000000E+00   1.98637975901428E-10   0.00000000000000E+00   0.00000000000000E+00  -9.27982828494932E-10
     -1.21521666382322E-34  -9.27982828494932E-10   5.22921336556449E-18   0.00000000000000E+00   0.00000000000000E+00
      0.00000000000000E+00   0.00000000000000E+00   0.00000000000000E+00   0.00000000000000E+00   0.00000000000000E+00
      4.69262161285814E-18   0.00000000000000E+00   0.00000000000000E+00   0.00000000000000E+00   0.00000000000000E+00
     -5.33586186193638E-21   2.15159403528754E-34  -5.33586186193617E-21  -1.44415981307663E-17   1.33331572075544E-02
      1.33331570083547E-02   0.00000000000000E+00   0.00000000000000E+00   9.27982828500268E-10  -9.36377371464319E-35
      9.27982828500268E-10   4.51976315234366E-18
      1.79592271475886E-02
      0.00000000000000E+00   2.15647017366864E-10   0.00000000000000E+00   0.00000000000000E+00  -1.00737628081634E-09
     -1.15447747168238E-34  -1.00737628081634E-09   5.22876494103843E-18   0.00000000000000E+00   0.00000000000000E+00
      0.00000000000000E+00   0.00000000000000E+00   0.00000000000000E+00   0.00000000000000E+00   0.00000000000000E+00
      4.66553703021633E-18   0.00000000000000E+00   0.00000000000000E+00   0.00000000000000E+00   0.00000000000000E+00
     -2.32190881440653E-20   1.98811008516820E-34  -2.32190881440651E-20  -1.44407194486111E-17   1.54449353469262E-02
      1.54449351306687E-02   0.00000000000000E+00   0.00000000000000E+00   1.00737628083956E-09  -8.33632613485819E-35
      1.00737628083956E-09   4.54641747735633E-18
      2.06439683480302E-02
      0.00000000000000E+00   2.31236748560154E-10   0.00000000000000E+00   0.00000000000000E+00  -1.08013499849665E-09
     -1.23708528085704E-34  -1.08013499849665E-09   5.22827482517913E-18   0.00000000000000E+00   0.00000000000000E+00
      0.00000000000000E+00   0.00000000000000E+00   0.00000000000000E+00   0.00000000000000E+00   0.00000000000000E+00
      4.63593794897067E-18   0.00000000000000E+00   0.00000000000000E+00   0.00000000000000E+00   0.00000000000000E+00
     -1.43862721756820E-19   1.99493002038587E-34  -1.43862721756820E-19  -1.44397928456496E-17   1.77538127793060E-02
      1.77538125474136E-02   0.00000000000000E+00   0.00000000000000E+00   1.08013499864052E-09  -7.57844739528832E-35
      1.08013499864052E-09   4.57558007149977E-18
      2.35792853938464E-02
      0.00000000000000E+00   2.45231118519190E-10   0.00000000000000E+00   0.00000000000000E+00  -1.14544305949381E-09
     -1.07430980790726E-34  -1.14544305949381E-09   5.22773914855555E-18   0.00000000000000E+00   0.00000000000000E+00
      0.00000000000000E+00   0.00000000000000E+00   0.00000000000000E+00   0.00000000000000E+00   0.00000000000000E+00
      4.60359167864033E-18   0.00000000000000E+00   0.00000000000000E+00   0.00000000000000E+00   0.00000000000000E+00
      8.34646241601878E-20   1.92496865661394E-34   8.34646241601880E-20  -1.44388192838065E-17   2.02781854387079E-02
      2.02781851927800E-02   0.00000000000000E+00   0.00000000000000E+00   1.14544305941034E-09  -8.50658848706681E-35
      1.14544305941034E-09   4.60748845661061E-18
      2.67885653639387E-02
      0.00000000000000E+00   2.57502943181741E-10   0.00000000000000E+00   0.00000000000000E+00  -1.20271457630611E-09
     -1.44259616814574E-34  -1.20271457630611E-09   5.22715368230930E-18   0.00000000000000E+00   0.00000000000000E+00
      0.00000000000000E+00   0.00000000000000E+00   0.00000000000000E+00   0.00000000000000E+00   0.00000000000000E+00
      4.56824404351436E-18   0.00000000000000E+00   0.00000000000000E+00   0.00000000000000E+00   0.00000000000000E+00
      5.16434764706203E-20   2.11439190870823E-34   5.16434764706206E-20  -1.44378005566404E-17   2.30381662129873E-02
      2.30381659547506E-02   0.00000000000000E+00   0.00000000000000E+00   1.20271457625446E-09  -6.71795740562491E-35
      1.20271457625446E-09   4.64240283081670E-18
      3.02973781312396E-02
      0.00000000000000E+00   2.67989033368608E-10   0.00000000000000E+00   0.00000000000000E+00  -1.25166408812215E-09
     -1.11601766341193E-34  -1.25166408812215E-09   5.22651380439599E-18   0.00000000000000E+00   0.00000000000000E+00
      0.00000000000000E+00   0.00000000000000E+00   0.00000000000000E+00   0.00000000000000E+00   0.00000000000000E+00
      4.52961738435350E-18   0.00000000000000E+00   0.00000000000000E+00   0.00000000000000E+00   0.00000000000000E+00
      2.53206966502826E-20   1.76965264046868E-34   2.53206966502828E-20  -1.44367394317255E-17   2.60557451928661E-02
      2.60557449241111E-02   0.00000000000000E+00   0.00000000000000E+00   1.25166408809683E-09  -6.53634977056745E-35
      1.25166408809683E-09   4.68060824297602E-18
      3.41336800901553E-02
      0.00000000000000E+00   2.76703482572221E-10   0.00000000000000E+00   0.00000000000000E+00  -1.29236832651500E-09
     -1.35612605661068E-34  -1.29236832651500E-09   5.22581446262323E-18   0.00000000000000E+00   0.00000000000000E+00
      0.00000000000000E+00   0.00000000000000E+00   0.00000000000000E+00   0.00000000000000E+00   0.00000000000000E+00
      4.48740837189591E-18   0.00000000000000E+00   0.00000000000000E+00   0.00000000000000E+00   0.00000000000000E+00
     -2.05351777265893E-19   1.95841673662588E-34  -2.05351777265893E-19  -1.44356398081922E-17   2.93549648775336E-02
      2.93549646000366E-02   0.00000000000000E+00   0.00000000000000E+00   1.29236832672035E-09  -6.02290680015199E-35
      1.29236832672035E-09   4.72241697367299E-18
      3.83280368985698E-02
      0.00000000000000E+00   2.83748062460965E-10   0.00000000000000E+00   0.00000000000000E+00  -1.32531415603384E-09
     -1.19160543012755E-34  -1.32531415603384E-09   5.22505013411715E-18   0.00000000000000E+00   0.00000000000000E+00
      0.00000000000000E+00   0.00000000000000E+00   0.00000000000000E+00   0.00000000000000E+00   0.00000000000000E+00
      4.44128560453134E-18   0.00000000000000E+00   0.00000000000000E+00   0.00000000000000E+00   0.00000000000000E+00
     -3.42922152259438E-19   1.70201437496053E-34  -3.42922152259438E-19  -1.44345068762642E-17   3.29621117327701E-02
      3.29621114482059E-02   0.00000000000000E+00   0.00000000000000E+00   1.32531415637676E-09  -5.10408944832982E-35
      1.32531415637676E-09   4.76817113761570E-18
      4.29138670091030E-02
      0.00000000000000E+00   2.89315610685055E-10   0.00000000000000E+00   0.00000000000000E+00  -1.35141309977699E-09
     -1.28923727332074E-34  -1.35141309977699E-09   5.22421478101210E-18   0.00000000000000E+00   0.00000000000000E+00
      0.00000000000000E+00   0.00000000000000E+00   0.00000000000000E+00   0.00000000000000E+00   0.00000000000000E+00
      4.39088697515091E-18   0.00000000000000E+00   0.00000000000000E+00   0.00000000000000E+00   0.00000000000000E+00
     -1.42377777728549E-18   1.74703921201734E-34  -1.42377777728549E-18  -1.44333472848365E-17   3.69059256278286E-02
      3.69059253376797E-02   0.00000000000000E+00   0.00000000000000E+00   1.35141310120077E-09  -4.57801938696589E-35
      1.35141310120077E-09   4.81824552867355E-18
      4.79277079299527E-02
      0.00000000000000E+00   2.93682839488611E-10   0.00000000000000E+00   0.00000000000000E+00  -1.37196638514059E-09
     -1.36423978489137E-34  -1.37196638514059E-09   5.22330180206143E-18   0.00000000000000E+00   0.00000000000000E+00
      0.00000000000000E+00   0.00000000000000E+00   0.00000000000000E+00   0.00000000000000E+00   0.00000000000000E+00
      4.33581678048372E-18   0.00000000000000E+00   0.00000000000000E+00   0.00000000000000E+00   0.00000000000000E+00
     -1.87888397252822E-18   1.73690216805477E-34  -1.87888397252822E-18  -1.44321693088556E-17   4.12178288197593E-02
      4.12178285252315E-02   0.00000000000000E+00   0.00000000000000E+00   1.37196638701947E-09  -3.72662383163400E-35
      1.37196638701947E-09   4.87305072631051E-18
      5.34095073367482E-02
      0.00000000000000E+00   2.97189137174355E-10   0.00000000000000E+00   0.00000000000000E+00  -1.38856459263947E-09
     -1.30547625675188E-34  -1.38856459263947E-09   5.22230397995995E-18   0.00000000000000E+00   0.00000000000000E+00
      0.00000000000000E+00   0.00000000000000E+00   0.00000000000000E+00   0.00000000000000E+00   0.00000000000000E+00
      4.27564255284936E-18   0.00000000000000E+00   0.00000000000000E+00   0.00000000000000E+00   0.00000000000000E+00
     -2.74279948045611E-18   1.57709894521179E-34  -2.74279948045611E-18  -1.44309830179760E-17   4.59321763096035E-02
      4.59321760115637E-02   0.00000000000000E+00   0.00000000000000E+00   1.38856459538226E-09  -2.71622688459912E-35
      1.38856459538226E-09   4.93303648516669E-18
      5.94029413548448E-02
      0.00000000000000E+00   3.00199027254735E-10   0.00000000000000E+00   0.00000000000000E+00  -1.40291168181646E-09
     -1.30677993417304E-34  -1.40291168181646E-09   5.22121342424923E-18   0.00000000000000E+00   0.00000000000000E+00
      0.00000000000000E+00   0.00000000000000E+00   0.00000000000000E+00   0.00000000000000E+00   0.00000000000000E+00
      4.20989159639753E-18   0.00000000000000E+00   0.00000000000000E+00   0.00000000000000E+00   0.00000000000000E+00
     -2.64348227196142E-18   1.55565102759181E-34  -2.64348227196142E-18  -1.44298004514553E-17   5.10865295651665E-02
      5.10865292641174E-02   0.00000000000000E+00   0.00000000000000E+00   1.40291168445994E-09  -2.48871093418775E-35
      1.40291168445994E-09   4.99869543080855E-18
      6.59557625479636E-02
      0.00000000000000E+00   3.03046907068461E-10   0.00000000000000E+00   0.00000000000000E+00  -1.41656601431200E-09
     -1.16687473533655E-34  -1.41656601431200E-09   5.22002150965595E-18   0.00000000000000E+00   0.00000000000000E+00
      0.00000000000000E+00   0.00000000000000E+00   0.00000000000000E+00   0.00000000000000E+00   0.00000000000000E+00
      4.13804721565698E-18   0.00000000000000E+00   0.00000000000000E+00   0.00000000000000E+00   0.00000000000000E+00
     -7.73119101510058E-20   1.39825399390623E-34  -7.73119101510057E-20  -1.44286358113092E-17   5.67219557912487E-02
      5.67219554873590E-02   0.00000000000000E+00   0.00000000000000E+00   1.41656601438931E-09  -2.31379258569678E-35
      1.41656601438931E-09   5.07056708599631E-18
      7.30764949111528E-02
      0.00000000000000E+00   3.05968839038927E-10   0.00000000000000E+00   0.00000000000000E+00  -1.43062121735284E-09
     -1.16628838666487E-34  -1.43062121735284E-09   5.21872675055135E-18   0.00000000000000E+00   0.00000000000000E+00
      0.00000000000000E+00   0.00000000000000E+00   0.00000000000000E+00   0.00000000000000E+00   0.00000000000000E+00
      4.06002312891597E-18   0.00000000000000E+00   0.00000000000000E+00   0.00000000000000E+00   0.00000000000000E+00
     -3.75946089798853E-20   1.35084784924514E-34  -3.75946089798851E-20  -1.44275121154757E-17   6.28457856235914E-02
      6.28457853167933E-02   0.00000000000000E+00   0.00000000000000E+00   1.43062121739043E-09  -1.84559462580272E-35
      1.43062121739043E-09   5.14876223600839E-18
      8.08143574124850E-02
      0.00000000000000E+00   3.09131982787724E-10   0.00000000000000E+00   0.00000000000000E+00  -1.44585231537863E-09
     -1.31598562546176E-34  -1.44585231537863E-09   5.21732026313378E-18   0.00000000000000E+00   0.00000000000000E+00
      0.00000000000000E+00   0.00000000000000E+00   0.00000000000000E+00   0.00000000000000E+00   0.00000000000000E+00
      3.97528714104163E-18   0.00000000000000E+00   0.00000000000000E+00   0.00000000000000E+00   0.00000000000000E+00
      1.51354797172474E-19   1.47672183819148E-34   1.51354797172474E-19  -1.44264468185975E-17   6.95003473747371E-02
      6.95003470647959E-02   0.00000000000000E+00   0.00000000000000E+00   1.44585231522727E-09  -1.60736212729724E-35
      1.44585231522727E-09   5.23383941442216E-18
      8.92228346639326E-02
      0.00000000000000E+00   3.12630285581583E-10   0.00000000000000E+00   0.00000000000000E+00  -1.46269797700402E-09
     -1.32087125911607E-34  -1.46269797700402E-09   5.21579239703571E-18   0.00000000000000E+00   0.00000000000000E+00
      0.00000000000000E+00   0.00000000000000E+00   0.00000000000000E+00   0.00000000000000E+00   0.00000000000000E+00
      3.88326102715782E-18   0.00000000000000E+00   0.00000000000000E+00   0.00000000000000E+00   0.00000000000000E+00
      5.01496764016434E-20   1.42770360168474E-34   5.01496764016436E-20  -1.44254596132918E-17   7.67316378109821E-02
      7.67316374975680E-02   0.00000000000000E+00   0.00000000000000E+00   1.46269797695387E-09  -1.06832342568677E-35
      1.46269797695387E-09   5.32640618909824E-18
      9.83600466105058E-02
      0.00000000000000E+00   3.16479380274726E-10   0.00000000000000E+00   0.00000000000000E+00  -1.48123409866193E-09
     -1.17184213817129E-34  -1.48123409866193E-09   5.21413267065752E-18   0.00000000000000E+00   0.00000000000000E+00
      0.00000000000000E+00   0.00000000000000E+00   0.00000000000000E+00   0.00000000000000E+00   0.00000000000000E+00
      3.78331660179376E-18   0.00000000000000E+00   0.00000000000000E+00   0.00000000000000E+00   0.00000000000000E+00
     -8.78697587578312E-20   1.25459709166260E-34  -8.78697587578311E-20  -1.44245726052191E-17   8.45896400850350E-02
      8.45896397678026E-02   0.00000000000000E+00   0.00000000000000E+00   1.48123409874980E-09  -8.27549534913094E-36
      1.48123409874980E-09   5.42712333276781E-18
      1.08289150259115E-01
      0.00000000000000E+00   3.20667769225979E-10   0.00000000000000E+00   0.00000000000000E+00  -1.50141389160411E-09
     -1.45108707735264E-34  -1.50141389160411E-09   5.21232969549957E-18   0.00000000000000E+00   0.00000000000000E+00
      0.00000000000000E+00   0.00000000000000E+00   0.00000000000000E+00   0.00000000000000E+00   0.00000000000000E+00
      3.67477127020287E-18   0.00000000000000E+00   0.00000000000000E+00   0.00000000000000E+00   0.00000000000000E+00
      7.63402639280135E-21   1.51086138936324E-34   7.63402639280150E-21  -1.44238102841590E-17   9.31286692228391E-02
      9.31286689014567E-02   0.00000000000000E+00   0.00000000000000E+00   1.50141389159648E-09  -5.97743120106058E-36
      1.50141389159648E-09   5.53670931845659E-18
      1.18289150259115E-01
      0.00000000000000E+00   3.24878843277353E-10   0.00000000000000E+00   0.00000000000000E+00  -1.52171729189579E-09
     -1.23589167143483E-34  -1.52171729189579E-09   5.21051441031241E-18   0.00000000000000E+00   0.00000000000000E+00
      0.00000000000000E+00   0.00000000000000E+00   0.00000000000000E+00   0.00000000000000E+00   0.00000000000000E+00
      3.56550854337287E-18   0.00000000000000E+00   0.00000000000000E+00   0.00000000000000E+00   0.00000000000000E+00
      1.24758020532709E-19   1.28394227904296E-34   1.24758020532709E-19  -1.44232368922078E-17   1.01728669222839E-01
      1.01728668897288E-01   0.00000000000000E+00   0.00000000000000E+00   1.52171729177103E-09  -4.80506076081336E-36
      1.52171729177103E-09   5.64721393852250E-18
      1.28289150259115E-01
      0.00000000000000E+00   3.29088175028564E-10   0.00000000000000E+00   0.00000000000000E+00  -1.54202715853346E-09
     -1.16798730048066E-34  -1.54202715853346E-09   5.20869963514123E-18   0.00000000000000E+00   0.00000000000000E+00
      0.00000000000000E+00   0.00000000000000E+00   0.00000000000000E+00   0.00000000000000E+00   0.00000000000000E+00
      3.45629788797318E-18   0.00000000000000E+00   0.00000000000000E+00   0.00000000000000E+00   0.00000000000000E+00
     -1.74187558266768E-19   1.20442480892211E-34  -1.74187558266768E-19  -1.44228421264005E-17   1.10328669222839E-01
      1.10328668893120E-01   0.00000000000000E+00   0.00000000000000E+00   1.54202715870765E-09  -3.64375084414460E-36
      1.54202715870765E-09   5.75784460328615E-18
      1.38289150259115E-01
      0.00000000000000E+00   3.33301780034912E-10   0.00000000000000E+00   0.00000000000000E+00  -1.56237217459740E-09
     -9.15117560249761E-35  -1.56237217459740E-09   5.20688532318131E-18   0.00000000000000E+00   0.00000000000000E+00
      0.00000000000000E+00   0.00000000000000E+00   0.00000000000000E+00   0.00000000000000E+00   0.00000000000000E+00
      3.34713436646263E-18   0.00000000000000E+00   0.00000000000000E+00   0.00000000000000E+00   0.00000000000000E+00
      1.04081164014791E-19   9.39703034625501E-35   1.04081164014791E-19  -1.44226113065740E-17   1.18928669222839E-01
      1.18928668888942E-01   0.00000000000000E+00   0.00000000000000E+00   1.56237217449332E-09  -2.45854743757391E-36
      1.56237217449332E-09   5.86859161693008E-18
      1.48289150259115E-01
      0.00000000000000E+00   3.37525204728583E-10   0.00000000000000E+00   0.00000000000000E+00  -1.58277853998845E-09
     -1.21317006636355E-34  -1.58277853998845E-09   5.20507143352442E-18   0.00000000000000E+00   0.00000000000000E+00
      0.00000000000000E+00   0.00000000000000E+00   0.00000000000000E+00   0.00000000000000E+00   0.00000000000000E+00
      3.23801372744215E-18   0.00000000000000E+00   0.00000000000000E+00   0.00000000000000E+00   0.00000000000000E+00
     -1.03577020154382E-19   1.23185443104666E-34  -1.03577020154382E-19  -1.44225312806685E-17   1.27528669222839E-01
      1.27528668884750E-01   0.00000000000000E+00   0.00000000000000E+00   1.58277854009203E-09  -1.86843646831140E-36
      1.58277854009203E-09   5.97944611970182E-18
      1.58289150259115E-01
      0.00000000000000E+00   3.41763555017003E-10   0.00000000000000E+00   0.00000000000000E+00  -1.60326973678497E-09
     -1.27116812860545E-34  -1.60326973678497E-09   5.20325792888185E-18   0.00000000000000E+00   0.00000000000000E+00
      0.00000000000000E+00   0.00000000000000E+00   0.00000000000000E+00   0.00000000000000E+00   0.00000000000000E+00
      3.12893221605951E-18   0.00000000000000E+00   0.00000000000000E+00   0.00000000000000E+00   0.00000000000000E+00
     -1.84005775843597E-19   1.28705709491112E-34  -1.84005775843597E-19  -1.44225901413751E-17   1.36128669222839E-01
      1.36128668880543E-01   0.00000000000000E+00   0.00000000000000E+00   1.60326973696897E-09  -1.58889663056695E-36
      1.60326973696897E-09   6.09039999643374E-18
      1.68289150259115E-01
      0.00000000000000E+00   3.46020183508064E-10   0.00000000000000E+00   0.00000000000000E+00  -1.62386094427763E-09
     -1.38709361356200E-34  -1.62386094427763E-09   5.20144477514570E-18   0.00000000000000E+00   0.00000000000000E+00
      0.00000000000000E+00   0.00000000000000E+00   0.00000000000000E+00   0.00000000000000E+00   0.00000000000000E+00
      3.01988649341300E-18   0.00000000000000E+00   0.00000000000000E+00   0.00000000000000E+00   0.00000000000000E+00
     -1.71240868157533E-19   1.39819993818251E-34  -1.71240868157533E-19  -1.44227770704323E-17   1.44728669222839E-01
      1.44728668876320E-01   0.00000000000000E+00   0.00000000000000E+00   1.62386094444887E-09  -1.11063246205053E-36
      1.62386094444887E-09   6.20144580187356E-18
      1.78289150259115E-01
      0.00000000000000E+00   3.50296551468035E-10   0.00000000000000E+00   0.00000000000000E+00  -1.64455850449915E-09
     -1.11925390381612E-34  -1.64455850449915E-09   5.19963194130144E-18   0.00000000000000E+00   0.00000000000000E+00
      0.00000000000000E+00   0.00000000000000E+00   0.00000000000000E+00   0.00000000000000E+00   0.00000000000000E+00
      2.91087359406103E-18   0.00000000000000E+00   0.00000000000000E+00   0.00000000000000E+00   0.00000000000000E+00
      1.15715432525074E-19   1.12715804692845E-34   1.15715432525074E-19  -1.44230822322618E-17   1.53328669222839E-01
      1.53328668872079E-01   0.00000000000000E+00   0.00000000000000E+00   1.64455850438343E-09  -7.90414311233315E-37
      1.64455850438343E-09   6.31257669689938E-18
      1.88289150259115E-01
      0.00000000000000E+00   3.54592814537996E-10   0.00000000000000E+00   0.00000000000000E+00  -1.66536290204129E-09