DF-ISE text

Info {
  version   = 1.0
  type      = xyplot
  datasets  = [
    "time"
    "source OuterVoltage" "source InnerVoltage" "source QuasiFermiPotential" "source DisplacementCurrent" "source eCurrent"
    "source hCurrent" "source TotalCurrent" "source Charge" "gate OuterVoltage" "gate InnerVoltage"
    "gate QuasiFermiPotential" "gate DisplacementCurrent" "gate eCurrent" "gate hCurrent" "gate TotalCurrent"
    "gate Charge" "substrate OuterVoltage" "substrate InnerVoltage" "substrate QuasiFermiPotential" "substrate DisplacementCurrent"
    "substrate eCurrent" "substrate hCurrent" "substrate TotalCurrent" "substrate Charge" "drain OuterVoltage"
    "drain InnerVoltage" "drain QuasiFermiPotential" "drain DisplacementCurrent" "drain eCurrent" "drain hCurrent"
    "drain TotalCurrent" "drain Charge" ]
  functions = [
    Time
    OuterVoltage InnerVoltage QuasiFermiPotential DisplacementCurrent eCurrent
    hCurrent TotalCurrent Charge OuterVoltage InnerVoltage
    QuasiFermiPotential DisplacementCurrent eCurrent hCurrent TotalCurrent
    Charge OuterVoltage InnerVoltage QuasiFermiPotential DisplacementCurrent
    eCurrent hCurrent TotalCurrent Charge OuterVoltage
    InnerVoltage QuasiFermiPotential DisplacementCurrent eCurrent hCurrent
    TotalCurrent Charge ]
}

Data {
      0.00000000000000E+00
      0.00000000000000E+00   0.00000000000000E+00   0.00000000000000E+00   0.00000000000000E+00  -1.66832318946577E-21
     -1.33072659033221E-34  -1.66832318946591E-21   4.36005543793770E-18   0.00000000000000E+00   0.00000000000000E+00
      0.00000000000000E+00   0.00000000000000E+00   0.00000000000000E+00   0.00000000000000E+00   0.00000000000000E+00
      1.34023272081325E-18   0.00000000000000E+00   0.00000000000000E+00   0.00000000000000E+00   0.00000000000000E+00
     -6.12292923128371E-21   2.86251819282544E-34  -6.12292923128343E-21  -9.68276429218951E-18   0.00000000000000E+00
      0.00000000000000E+00   0.00000000000000E+00   0.00000000000000E+00   7.79125242074949E-21  -1.53179160249323E-34
      7.79125242074933E-21   3.98247613343857E-18
      0.00000000000000E+00
      0.00000000000000E+00   0.00000000000000E+00   0.00000000000000E+00   0.00000000000000E+00   4.29370578463347E-20
     -1.47939010950009E-34   4.29370578463346E-20   4.35886626048376E-18   0.00000000000000E+00   0.00000000000000E+00
      0.00000000000000E+00   0.00000000000000E+00   0.00000000000000E+00   0.00000000000000E+00   0.00000000000000E+00
      1.33599307622183E-18   0.00000000000000E+00   0.00000000000000E+00   0.00000000000000E+00   0.00000000000000E+00
     -1.26155890196498E-19   3.03293807597057E-34  -1.26155890196498E-19  -9.67635999413740E-18   0.00000000000000E+00
      0.00000000000000E+00   0.00000000000000E+00   0.00000000000000E+00   8.32188323501637E-20  -1.55354796647048E-34
      8.32188323501635E-20   3.98150065743176E-18
      1.00000000000000E-03
      0.00000000000000E+00   6.11137904839176E-12   0.00000000000000E+00   0.00000000000000E+00  -2.84000175006293E-11
     -1.40620632554128E-34  -2.84000175006293E-11   4.35884635450624E-18   0.00000000000000E+00   0.00000000000000E+00
      0.00000000000000E+00   0.00000000000000E+00   0.00000000000000E+00   0.00000000000000E+00   0.00000000000000E+00
      1.33531404533040E-18   0.00000000000000E+00   0.00000000000000E+00   0.00000000000000E+00   0.00000000000000E+00
     -5.60994570598182E-19   3.06576759787341E-34  -5.60994570598181E-19  -9.67631032658838E-18   5.00000000000000E-05
      4.99999938818119E-05   0.00000000000000E+00   0.00000000000000E+00   2.84000180616239E-11  -1.65956127233213E-34
      2.84000180616239E-11   3.98214992675174E-18
      2.09333333333333E-03
      0.00000000000000E+00   1.27714288589698E-11   0.00000000000000E+00   0.00000000000000E+00  -5.93497545703967E-11
     -1.34240468011908E-34  -5.93497545703967E-11   4.35882459117233E-18   0.00000000000000E+00   0.00000000000000E+00
      0.00000000000000E+00   0.00000000000000E+00   0.00000000000000E+00   0.00000000000000E+00   0.00000000000000E+00
      1.33457165263044E-18   0.00000000000000E+00   0.00000000000000E+00   0.00000000000000E+00   0.00000000000000E+00
      1.25624153589095E-19   2.85748236707306E-34   1.25624153589095E-19  -9.67625605698957E-18   1.04666666666667E-04
      1.04666653880999E-04   0.00000000000000E+00   0.00000000000000E+00   5.93497544447726E-11  -1.51507768695398E-34
      5.93497544447726E-11   3.98285981318680E-18
      3.29600000000000E-03
      0.00000000000000E+00   2.00701578446616E-11   0.00000000000000E+00   0.00000000000000E+00  -9.32674020374838E-11
     -1.27425558091330E-34  -9.32674020374838E-11   4.35880065215425E-18   0.00000000000000E+00   0.00000000000000E+00
      0.00000000000000E+00   0.00000000000000E+00   0.00000000000000E+00   0.00000000000000E+00   0.00000000000000E+00
      1.33375503802979E-18   0.00000000000000E+00   0.00000000000000E+00   0.00000000000000E+00   0.00000000000000E+00
     -2.16867885831021E-20   2.83122884660309E-34  -2.16867885831018E-20  -9.67619640092597E-18   1.64800000000000E-04
      1.64799979907489E-04   0.00000000000000E+00   0.00000000000000E+00   9.32674020591705E-11  -1.55697326568979E-34
      9.32674020591705E-11   3.98364071074193E-18
      4.61893333333333E-03
      0.00000000000000E+00   2.80649096379446E-11   0.00000000000000E+00   0.00000000000000E+00  -1.30419456751120E-10
     -1.44494387243220E-34  -1.30419456751120E-10   4.35877432002252E-18   0.00000000000000E+00   0.00000000000000E+00
      0.00000000000000E+00   0.00000000000000E+00   0.00000000000000E+00   0.00000000000000E+00   0.00000000000000E+00
      1.33285678296671E-18   0.00000000000000E+00   0.00000000000000E+00   0.00000000000000E+00   0.00000000000000E+00
      1.82214300552585E-19   2.97525770576996E-34   1.82214300552585E-19  -9.67613082821734E-18   2.30946666666667E-04
      2.30946638570522E-04   0.00000000000000E+00   0.00000000000000E+00   1.30419456568906E-10  -1.53031383333775E-34
      1.30419456568906E-10   3.98449972522809E-18
      6.07416000000000E-03
      0.00000000000000E+00   3.68175333975969E-11   0.00000000000000E+00   0.00000000000000E+00  -1.71093248550081E-10
     -1.30449625973416E-34  -1.71093248550081E-10   4.35874535563345E-18   0.00000000000000E+00   0.00000000000000E+00
      0.00000000000000E+00   0.00000000000000E+00   0.00000000000000E+00   0.00000000000000E+00   0.00000000000000E+00
      1.33186872777869E-18   0.00000000000000E+00   0.00000000000000E+00   0.00000000000000E+00   0.00000000000000E+00
      3.34673749540034E-19   2.82721336828234E-34   3.34673749540034E-19  -9.67605875743132E-18   3.03708000000000E-04
      3.03707963141511E-04   0.00000000000000E+00   0.00000000000000E+00   1.71093248215407E-10  -1.52271710854817E-34
      1.71093248215407E-10   3.98544467401918E-18
      7.67490933333333E-03
      0.00000000000000E+00   4.63944665260078E-11   0.00000000000000E+00   0.00000000000000E+00  -2.15597543503593E-10
     -1.42381287763636E-34  -2.15597543503593E-10   4.35871349596375E-18   0.00000000000000E+00   0.00000000000000E+00
      0.00000000000000E+00   0.00000000000000E+00   0.00000000000000E+00   0.00000000000000E+00   0.00000000000000E+00
      1.33078189774878E-18   0.00000000000000E+00   0.00000000000000E+00   0.00000000000000E+00   0.00000000000000E+00
      2.97831933600689E-19   3.05238075818431E-34   2.97831933600690E-19  -9.67597955112480E-18   3.83745466666667E-04
      3.83745420220617E-04   0.00000000000000E+00   0.00000000000000E+00   2.15597543205761E-10  -1.62856788054795E-34
      2.15597543205761E-10   3.98648415741225E-18
      9.43573360000000E-03
      0.00000000000000E+00   5.68669063789036E-11   0.00000000000000E+00   0.00000000000000E+00  -2.64263075776495E-10
     -1.65610958559775E-34  -2.64263075776495E-10   4.35867845173010E-18   0.00000000000000E+00   0.00000000000000E+00
      0.00000000000000E+00   0.00000000000000E+00   0.00000000000000E+00   0.00000000000000E+00   0.00000000000000E+00
      1.32958642178907E-18   0.00000000000000E+00   0.00000000000000E+00   0.00000000000000E+00   0.00000000000000E+00
      1.62835090597888E-19   3.17567050611632E-34   1.62835090597888E-19  -9.67589251068552E-18   4.71786680000000E-04
      4.71786623069901E-04   0.00000000000000E+00   0.00000000000000E+00   2.64263075613660E-10  -1.51956092051857E-34
      2.64263075613660E-10   3.98762763716633E-18
      1.13726402933333E-02
      0.00000000000000E+00   6.83108188223104E-11   0.00000000000000E+00   0.00000000000000E+00  -3.17442873898037E-10
     -1.24064681716336E-34  -3.17442873898037E-10   4.35863990477187E-18   0.00000000000000E+00   0.00000000000000E+00
      0.00000000000000E+00   0.00000000000000E+00   0.00000000000000E+00   0.00000000000000E+00   0.00000000000000E+00
      1.32827144303117E-18   0.00000000000000E+00   0.00000000000000E+00   0.00000000000000E+00   0.00000000000000E+00
      2.03511409882693E-19   2.75860305074107E-34   2.03511409882693E-19  -9.67579687074947E-18   5.68632014666667E-04
      5.68631946279984E-04   0.00000000000000E+00   0.00000000000000E+00   3.17442873694525E-10  -1.51795623357772E-34
      3.17442873694525E-10   3.98888552294642E-18
      1.35032376560000E-02
      0.00000000000000E+00   8.08070118224375E-11   0.00000000000000E+00   0.00000000000000E+00  -3.75512289681646E-10
     -1.38196654418369E-34  -3.75512289681646E-10   4.35859750517403E-18   0.00000000000000E+00   0.00000000000000E+00
      0.00000000000000E+00   0.00000000000000E+00   0.00000000000000E+00   0.00000000000000E+00   0.00000000000000E+00
      1.32682502052259E-18   0.00000000000000E+00   0.00000000000000E+00   0.00000000000000E+00   0.00000000000000E+00
      3.88270501170716E-19   2.78603664424542E-34   3.88270501170716E-19  -9.67569179316968E-18   6.75161882800000E-04
      6.75161801903300E-04   0.00000000000000E+00   0.00000000000000E+00   3.75512289293375E-10  -1.40407010006173E-34
      3.75512289293375E-10   3.99026926747307E-18
      1.58468947549333E-02
      0.00000000000000E+00   9.44409979638029E-11   0.00000000000000E+00   0.00000000000000E+00  -4.38868633761139E-10
     -1.46527758145184E-34  -4.38868633761139E-10   4.35855086810474E-18   0.00000000000000E+00   0.00000000000000E+00
      0.00000000000000E+00   0.00000000000000E+00   0.00000000000000E+00   0.00000000000000E+00   0.00000000000000E+00
      1.32523402114777E-18   0.00000000000000E+00   0.00000000000000E+00   0.00000000000000E+00   0.00000000000000E+00
      6.42418043367323E-19   2.82598809831493E-34   6.42418043367324E-19  -9.67557636051325E-18   7.92344737746667E-04
      7.92344643200914E-04   0.00000000000000E+00   0.00000000000000E+00   4.38868633118721E-10  -1.36071051686310E-34
      4.38868633118721E-10   3.99179147126073E-18
      1.84249175637600E-02
      0.00000000000000E+00   1.09302852403646E-10   0.00000000000000E+00   0.00000000000000E+00  -5.07930303042294E-10
     -1.36612322619670E-34  -5.07930303042294E-10   4.35849957033861E-18   0.00000000000000E+00   0.00000000000000E+00
      0.00000000000000E+00   0.00000000000000E+00   0.00000000000000E+00   0.00000000000000E+00   0.00000000000000E+00
      1.32348400080822E-18   0.00000000000000E+00   0.00000000000000E+00   0.00000000000000E+00   0.00000000000000E+00
      1.23207855160712E-18   2.94420216778900E-34   1.23207855160712E-18  -9.67544956906631E-18   9.21245878188001E-04
      9.21245768763997E-04   0.00000000000000E+00   0.00000000000000E+00   5.07930301810216E-10  -1.57807894159231E-34
      5.07930301810216E-10   3.99346599791945E-18
      2.12607426534693E-02
      0.00000000000000E+00   1.25486851197622E-10   0.00000000000000E+00   0.00000000000000E+00  -5.83135272159620E-10
     -1.38084368620768E-34  -5.83135272159620E-10   4.35844314643626E-18   0.00000000000000E+00   0.00000000000000E+00
      0.00000000000000E+00   0.00000000000000E+00   0.00000000000000E+00   0.00000000000000E+00   0.00000000000000E+00
      1.32155907380220E-18   0.00000000000000E+00   0.00000000000000E+00   0.00000000000000E+00   0.00000000000000E+00
     -7.94870011638292E-17   2.90921347903099E-34  -7.94870011638292E-17  -9.67531032133179E-18   1.06303713267347E-03
      1.06303700704764E-03   0.00000000000000E+00   0.00000000000000E+00   5.83135351646620E-10  -1.52836979282331E-34
      5.83135351646620E-10   3.99530810109333E-18
      2.43801502521496E-02
      0.00000000000000E+00   1.43091012646578E-10   0.00000000000000E+00   0.00000000000000E+00  -6.64938833453068E-10
     -1.46371577490183E-34  -6.64938833453068E-10   4.35838108454495E-18   0.00000000000000E+00   0.00000000000000E+00
      0.00000000000000E+00   0.00000000000000E+00   0.00000000000000E+00   0.00000000000000E+00   0.00000000000000E+00
      1.31944176923962E-18   0.00000000000000E+00   0.00000000000000E+00   0.00000000000000E+00   0.00000000000000E+00
      3.92303513282083E-17   3.06562694109045E-34   3.92303513282083E-17  -9.67515741800794E-18   1.21900751260748E-03
      1.21900736935814E-03   0.00000000000000E+00   0.00000000000000E+00   6.64938794222717E-10  -1.60191116618862E-34
      6.64938794222717E-10   3.99733456422334E-18
      2.78114986106979E-02
      0.00000000000000E+00   1.62216362538658E-10   0.00000000000000E+00   0.00000000000000E+00  -7.53810175849639E-10
     -1.30972152196623E-34  -7.53810175849639E-10   4.35831282178421E-18   0.00000000000000E+00   0.00000000000000E+00
      0.00000000000000E+00   0.00000000000000E+00   0.00000000000000E+00   0.00000000000000E+00   0.00000000000000E+00
      1.31711287321182E-18   0.00000000000000E+00   0.00000000000000E+00   0.00000000000000E+00   0.00000000000000E+00
     -4.75713929653903E-17   2.77169315610707E-34  -4.75713929653903E-17  -9.67498954943573E-18   1.39057493053490E-03
      1.39057476813921E-03   0.00000000000000E+00   0.00000000000000E+00   7.53810223421031E-10  -1.46197163414085E-34
      7.53810223421031E-10   3.99956385443973E-18
      3.15859818051010E-02
      0.00000000000000E+00   1.82966052211636E-10   0.00000000000000E+00   0.00000000000000E+00  -8.50228367529448E-10
     -1.26356197879149E-34  -8.50228367529448E-10   4.35823773917508E-18   0.00000000000000E+00   0.00000000000000E+00
      0.00000000000000E+00   0.00000000000000E+00   0.00000000000000E+00   0.00000000000000E+00   0.00000000000000E+00
      1.31455125532012E-18   0.00000000000000E+00   0.00000000000000E+00   0.00000000000000E+00   0.00000000000000E+00
     -7.37948325066275E-18   2.80008228699982E-34  -7.37948325066275E-18  -9.67480528652723E-18   1.57929909025505E-03
      1.57929890708693E-03   0.00000000000000E+00   0.00000000000000E+00   8.50228374908931E-10  -1.53652030820833E-34
      8.50228374908931E-10   4.00201629203201E-18
      3.57379133189445E-02
      0.00000000000000E+00   2.05444066451494E-10   0.00000000000000E+00   0.00000000000000E+00  -9.54676264506735E-10
     -1.43907124575413E-34  -9.54676264506735E-10   4.35815515606868E-18   0.00000000000000E+00   0.00000000000000E+00
      0.00000000000000E+00   0.00000000000000E+00   0.00000000000000E+00   0.00000000000000E+00   0.00000000000000E+00
      1.31173367801794E-18   0.00000000000000E+00   0.00000000000000E+00   0.00000000000000E+00   0.00000000000000E+00
      7.40108721557018E-18   2.94010855061563E-34   7.40108721557018E-18  -9.67460307117327E-18   1.78689566594722E-03
      1.78689546027652E-03   0.00000000000000E+00   0.00000000000000E+00   9.54676257105648E-10  -1.50103730486150E-34
      9.54676257105648E-10   4.00471423708665E-18
      4.03050379841723E-02
      0.00000000000000E+00   2.29753683239061E-10   0.00000000000000E+00   0.00000000000000E+00  -1.06763339731845E-09
     -1.29842560554896E-34  -1.06763339731845E-09   4.35806432402552E-18   0.00000000000000E+00   0.00000000000000E+00
      0.00000000000000E+00   0.00000000000000E+00   0.00000000000000E+00   0.00000000000000E+00   0.00000000000000E+00
      1.30863458708926E-18   0.00000000000000E+00   0.00000000000000E+00   0.00000000000000E+00   0.00000000000000E+00
      2.27361834583956E-17   2.74467476410257E-34   2.27361834583956E-17  -9.67438120617471E-18   2.01525189920861E-03
      2.01525166920177E-03   0.00000000000000E+00   0.00000000000000E+00   1.06763337458227E-09  -1.44624915855361E-34
      1.06763337458227E-09   4.00768229505990E-18
      4.53288751159228E-02
      0.00000000000000E+00   2.55995514775930E-10   0.00000000000000E+00   0.00000000000000E+00  -1.18956674482248E-09
     -1.41307526000651E-34  -1.18956674482248E-09   4.35796442009174E-18   0.00000000000000E+00   0.00000000000000E+00
      0.00000000000000E+00   0.00000000000000E+00   0.00000000000000E+00   0.00000000000000E+00   0.00000000000000E+00
      1.30522588140992E-18   0.00000000000000E+00   0.00000000000000E+00   0.00000000000000E+00   0.00000000000000E+00
     -1.93542452758482E-17   2.74898000519105E-34  -1.93542452758482E-17  -9.67413784473011E-18   2.26644375579614E-03
      2.26644349951890E-03   0.00000000000000E+00   0.00000000000000E+00   1.18956676417672E-09  -1.33590474518454E-34
      1.18956676417672E-09   4.01094754322844E-18
      5.08550959608485E-02
      0.00000000000000E+00   2.84265098414117E-10   0.00000000000000E+00   0.00000000000000E+00  -1.32091970775076E-09
     -1.37602407807847E-34  -1.32091970775076E-09   4.35785453941321E-18   0.00000000000000E+00   0.00000000000000E+00
      0.00000000000000E+00   0.00000000000000E+00   0.00000000000000E+00   0.00000000000000E+00   0.00000000000000E+00
      1.30147665995579E-18   0.00000000000000E+00   0.00000000000000E+00   0.00000000000000E+00   0.00000000000000E+00
      3.05481796805693E-17   2.88818523176522E-34   3.05481796805693E-17  -9.67387097953485E-18   2.54275479804242E-03
      2.54275451346492E-03   0.00000000000000E+00   0.00000000000000E+00   1.32091967720258E-09  -1.51216115368676E-34
      1.32091967720258E-09   4.01453978016587E-18
      5.69339388902666E-02
      0.00000000000000E+00   3.14649989570462E-10   0.00000000000000E+00   0.00000000000000E+00  -1.46209848803464E-09
     -1.23484835804135E-34  -1.46209848803464E-09   4.35773368712392E-18   0.00000000000000E+00   0.00000000000000E+00
      0.00000000000000E+00   0.00000000000000E+00   0.00000000000000E+00   0.00000000000000E+00   0.00000000000000E+00
      1.29735294385239E-18   0.00000000000000E+00   0.00000000000000E+00   0.00000000000000E+00   0.00000000000000E+00
     -7.86964722728184E-17   2.59944162300780E-34  -7.86964722728184E-17  -9.67357843160887E-18   2.84669694451333E-03
      2.84669662951806E-03   0.00000000000000E+00   0.00000000000000E+00   1.46209856673111E-09  -1.36459326496645E-34
      1.46209856673111E-09   4.01849180063258E-18
      6.36206661126266E-02
      0.00000000000000E+00   3.47226362900891E-10   0.00000000000000E+00   0.00000000000000E+00  -1.61345628286319E-09
     -1.21025481277437E-34  -1.61345628286319E-09   4.35760076943849E-18   0.00000000000000E+00   0.00000000000000E+00
      0.00000000000000E+00   0.00000000000000E+00   0.00000000000000E+00   0.00000000000000E+00   0.00000000000000E+00
      1.29281737102075E-18   0.00000000000000E+00   0.00000000000000E+00   0.00000000000000E+00   0.00000000000000E+00
      2.22958285665170E-17   2.65079023609691E-34   2.22958285665170E-17  -9.67325783895996E-18   3.18103330563133E-03
      3.18103295802454E-03   0.00000000000000E+00   0.00000000000000E+00   1.61345626056736E-09  -1.44053542332255E-34
      1.61345626056736E-09   4.02283969850073E-18
      7.09760660572226E-02
      0.00000000000000E+00   3.82054957440836E-10   0.00000000000000E+00   0.00000000000000E+00  -1.77527448746533E-09
     -1.45119086028876E-34  -1.77527448746533E-09   4.35745458387142E-18   0.00000000000000E+00   0.00000000000000E+00
      0.00000000000000E+00   0.00000000000000E+00   0.00000000000000E+00   0.00000000000000E+00   0.00000000000000E+00
      1.28782886076041E-18   0.00000000000000E+00   0.00000000000000E+00   0.00000000000000E+00   0.00000000000000E+00
      1.95609951907622E-17   2.78032919129178E-34   1.95609951907622E-17  -9.67290664526336E-18   3.54880330286113E-03
      3.54880292038830E-03   0.00000000000000E+00   0.00000000000000E+00   1.77527446790434E-09  -1.32913833100303E-34
      1.77527446790434E-09   4.02762320063150E-18
      7.90670059962782E-02
      0.00000000000000E+00   4.19176514032516E-10   0.00000000000000E+00   0.00000000000000E+00  -1.94774148776131E-09
     -1.46886978814772E-34  -1.94774148776131E-09   4.35729380849674E-18   0.00000000000000E+00   0.00000000000000E+00
      0.00000000000000E+00   0.00000000000000E+00   0.00000000000000E+00   0.00000000000000E+00   0.00000000000000E+00
      1.28234224530048E-18   0.00000000000000E+00   0.00000000000000E+00   0.00000000000000E+00   0.00000000000000E+00
      1.00939300608088E-16   2.83829022099009E-34   1.00939300608088E-16  -9.67252208869901E-18   3.95335029981391E-03
      3.95334988017977E-03   0.00000000000000E+00   0.00000000000000E+00   1.94774138682201E-09  -1.36942043284237E-34
      1.94774138682201E-09   4.03288603490180E-18
      8.79670399292394E-02
      0.00000000000000E+00   4.58606597221334E-10   0.00000000000000E+00   0.00000000000000E+00  -2.13092860113711E-09
     -1.31382852462510E-34  -2.13092860113711E-09   4.35711699016114E-18   0.00000000000000E+00   0.00000000000000E+00
      0.00000000000000E+00   0.00000000000000E+00   0.00000000000000E+00   0.00000000000000E+00   0.00000000000000E+00
      1.27630786520223E-18   0.00000000000000E+00   0.00000000000000E+00   0.00000000000000E+00   0.00000000000000E+00
      1.98387080896869E-16   2.71869907067402E-34   1.98387080896869E-16  -9.67210119135287E-18   4.39835199646197E-03
      4.39835153735568E-03   0.00000000000000E+00   0.00000000000000E+00   2.13092840275003E-09  -1.40487054604892E-34
      2.13092840275003E-09   4.03867633598954E-18
      9.77570772554967E-02
      0.00000000000000E+00   5.00329797057687E-10   0.00000000000000E+00   0.00000000000000E+00  -2.32476289811808E-09
     -1.37584273061548E-34  -2.32476289811808E-09   4.35692253154244E-18   0.00000000000000E+00   0.00000000000000E+00
      0.00000000000000E+00   0.00000000000000E+00   0.00000000000000E+00   0.00000000000000E+00   0.00000000000000E+00
      1.26967112502581E-18   0.00000000000000E+00   0.00000000000000E+00   0.00000000000000E+00   0.00000000000000E+00
     -1.88089100717821E-19   2.74364474217847E-34  -1.88089100717821E-19  -9.67164074939115E-18   4.88785386277484E-03
      4.88785336190112E-03   0.00000000000000E+00   0.00000000000000E+00   2.32476289830617E-09  -1.36780201156299E-34
      2.32476289830617E-09   4.04504709282290E-18
      1.07757077255497E-01
      0.00000000000000E+00   5.41219878417009E-10   0.00000000000000E+00   0.00000000000000E+00  -2.51472084063849E-09
     -1.42829802445920E-34  -2.51472084063849E-09   4.35672394705256E-18   0.00000000000000E+00   0.00000000000000E+00
      0.00000000000000E+00   0.00000000000000E+00   0.00000000000000E+00   0.00000000000000E+00   0.00000000000000E+00
      1.26289320695814E-18   0.00000000000000E+00   0.00000000000000E+00   0.00000000000000E+00   0.00000000000000E+00
      2.46606141694528E-16   2.66788097798857E-34   2.46606141694528E-16  -9.67117316920070E-18   5.38785386277483E-03
      5.38785332096780E-03   0.00000000000000E+00   0.00000000000000E+00   2.51472059403235E-09  -1.23958295352937E-34
      2.51472059403235E-09   4.05155601519000E-18
      1.17757077255497E-01
      0.00000000000000E+00   5.80422364071921E-10   0.00000000000000E+00   0.00000000000000E+00  -2.69683303337447E-09
     -1.27317805568267E-34  -2.69683303337447E-09   4.35652540726954E-18   0.00000000000000E+00   0.00000000000000E+00
      0.00000000000000E+00   0.00000000000000E+00   0.00000000000000E+00   0.00000000000000E+00   0.00000000000000E+00
      1.25611644977203E-18   0.00000000000000E+00   0.00000000000000E+00   0.00000000000000E+00   0.00000000000000E+00
      2.48696299563898E-16   2.66403010060756E-34   2.48696299563898E-16  -9.67070833805652E-18   5.88785386277483E-03
      5.88785328172410E-03   0.00000000000000E+00   0.00000000000000E+00   2.69683278467818E-09  -1.39085204492489E-34
      2.69683278467818E-09   4.05806648101497E-18
      1.27757077255497E-01
      0.00000000000000E+00   6.17995967339460E-10   0.00000000000000E+00   0.00000000000000E+00  -2.87137301338911E-09
     -1.43007205754512E-34  -2.87137301338911E-09   4.35632691181807E-18   0.00000000000000E+00   0.00000000000000E+00
      0.00000000000000E+00   0.00000000000000E+00   0.00000000000000E+00   0.00000000000000E+00   0.00000000000000E+00
      1.24934084461609E-18   0.00000000000000E+00   0.00000000000000E+00   0.00000000000000E+00   0.00000000000000E+00
      2.73522811534670E-16   2.79683212603470E-34   2.73522811534670E-16  -9.67024623917766E-18   6.38785386277483E-03
      6.38785324411120E-03   0.00000000000000E+00   0.00000000000000E+00   2.87137273986630E-09  -1.36676006848957E-34
      2.87137273986630E-09   4.06457848274348E-18
      1.37757077255497E-01
      0.00000000000000E+00   6.53998408928943E-10   0.00000000000000E+00   0.00000000000000E+00  -3.03860958215529E-09
     -1.37868840801682E-34  -3.03860958215529E-09   4.35612846031779E-18   0.00000000000000E+00   0.00000000000000E+00
      0.00000000000000E+00   0.00000000000000E+00   0.00000000000000E+00   0.00000000000000E+00   0.00000000000000E+00
      1.24256638270477E-18   0.00000000000000E+00   0.00000000000000E+00   0.00000000000000E+00   0.00000000000000E+00
      2.43155530957440E-16   2.55879274218356E-34   2.43155530957440E-16  -9.66978685589940E-18   6.88785386277483E-03
      6.88785320807129E-03   0.00000000000000E+00   0.00000000000000E+00   3.03860933899976E-09  -1.18010433416674E-34
      3.03860933899976E-09   4.07109201287684E-18
      1.47757077255497E-01
      0.00000000000000E+00   6.88486339358837E-10   0.00000000000000E+00   0.00000000000000E+00  -3.19880661637258E-09
     -1.32363446139303E-34  -3.19880661637258E-09   4.35593005238395E-18   0.00000000000000E+00   0.00000000000000E+00
      0.00000000000000E+00   0.00000000000000E+00   0.00000000000000E+00   0.00000000000000E+00   0.00000000000000E+00
      1.23579305530905E-18   0.00000000000000E+00   0.00000000000000E+00   0.00000000000000E+00   0.00000000000000E+00
      2.63173409974029E-16   2.49078958366305E-34   2.63173409974029E-16  -9.66933017165236E-18   7.38785386277483E-03
      7.38785317354767E-03   0.00000000000000E+00   0.00000000000000E+00   3.19880635319917E-09  -1.16715512227002E-34
      3.19880635319917E-09   4.07760706395935E-18
      1.57757077255497E-01
      0.00000000000000E+00   7.21515201474884E-10   0.00000000000000E+00   0.00000000000000E+00  -3.35222235330550E-09
     -1.46870844952622E-34  -3.35222235330550E-09   4.35573168762724E-18   0.00000000000000E+00   0.00000000000000E+00
      0.00000000000000E+00   0.00000000000000E+00   0.00000000000000E+00   0.00000000000000E+00   0.00000000000000E+00
      1.22902085371725E-18   0.00000000000000E+00   0.00000000000000E+00   0.00000000000000E+00   0.00000000000000E+00
      2.35952187938882E-16   2.58050379651570E-34   2.35952187938882E-16  -9.66887616991916E-18   7.88785386277484E-03
      7.88785314048477E-03   0.00000000000000E+00   0.00000000000000E+00   3.35222211735331E-09  -1.11179534698948E-34
      3.35222211735331E-09   4.08412362857463E-18
      1.67757077255497E-01
      0.00000000000000E+00   7.53139161423933E-10   0.00000000000000E+00   0.00000000000000E+00  -3.49910901054329E-09
     -1.33662802736797E-34  -3.49910901054329E-09   4.35553336565527E-18   0.00000000000000E+00   0.00000000000000E+00
      0.00000000000000E+00   0.00000000000000E+00   0.00000000000000E+00   0.00000000000000E+00   0.00000000000000E+00
      1.22224976927688E-18   0.00000000000000E+00   0.00000000000000E+00   0.00000000000000E+00   0.00000000000000E+00
      2.36137319669233E-16   2.40111487316180E-34   2.36137319669233E-16  -9.66842483428274E-18   8.38785386277484E-03
      8.38785310882841E-03   0.00000000000000E+00   0.00000000000000E+00   3.49910877440597E-09  -1.06448684579383E-34
      3.49910877440597E-09   4.09064169935057E-18
      1.77757077255497E-01
      0.00000000000000E+00   7.83411008252237E-10   0.00000000000000E+00   0.00000000000000E+00  -3.63971232628296E-09
     -1.19891809711089E-34  -3.63971232628296E-09   4.35533508607375E-18   0.00000000000000E+00   0.00000000000000E+00
      0.00000000000000E+00   0.00000000000000E+00   0.00000000000000E+00   0.00000000000000E+00   0.00000000000000E+00
      1.21547979337844E-18   0.00000000000000E+00   0.00000000000000E+00   0.00000000000000E+00   0.00000000000000E+00
      2.32466214128078E-16   2.40127465699842E-34   2.32466214128078E-16  -9.66797614840376E-18   8.88785386277484E-03
      8.88785307852571E-03   0.00000000000000E+00   0.00000000000000E+00   3.63971209381675E-09  -1.20235655988753E-34
      3.63971209381675E-09   4.09716126895155E-18
      1.87757077255497E-01
      0.00000000000000E+00   8.12382063772113E-10   0.00000000000000E+00   0.00000000000000E+00  -3.77427132036479E-09
     -1.39851309342688E-34  -3.77427132036479E-09   4.35513684848678E-18   0.00000000000000E+00   0.00000000000000E+00
      0.00000000000000E+00   0.00000000000000E+00   0.00000000000000E+00   0.00000000000000E+00   0.00000000000000E+00
      1.20871091752829E-18   0.00000000000000E+00   0.00000000000000E+00   0.00000000000000E+00   0.00000000000000E+00
      2.29363903344768E-16   2.55583198491715E-34   2.29363903344768E-16  -9.66753009612418E-18   9.38785386277484E-03
      9.38785304952531E-03   0.00000000000000E+00   0.00000000000000E+00   3.77427109100088E-09  -1.15731889149027E-34
      3.77427109100088E-09   4.10368233010913E-18
      1.97757077255497E-01
      0.00000000000000E+00   8.40102293802458E-10   0.00000000000000E+00   0.00000000000000E+00  -3.90301858872835E-09