DF-ISE text

Info {
  version   = 1.0
  type      = xyplot
  datasets  = [
    "time"
    "source OuterVoltage" "source InnerVoltage" "source QuasiFermiPotential" "source DisplacementCurrent" "source eCurrent"
    "source hCurrent" "source TotalCurrent" "source Charge" "gate OuterVoltage" "gate InnerVoltage"
    "gate QuasiFermiPotential" "gate DisplacementCurrent" "gate eCurrent" "gate hCurrent" "gate TotalCurrent"
    "gate Charge" "substrate OuterVoltage" "substrate InnerVoltage" "substrate QuasiFermiPotential" "substrate DisplacementCurrent"
    "substrate eCurrent" "substrate hCurrent" "substrate TotalCurrent" "substrate Charge" "drain OuterVoltage"
    "drain InnerVoltage" "drain QuasiFermiPotential" "drain DisplacementCurrent" "drain eCurrent" "drain hCurrent"
    "drain TotalCurrent" "drain Charge" ]
  functions = [
    Time
    OuterVoltage InnerVoltage QuasiFermiPotential DisplacementCurrent eCurrent
    hCurrent TotalCurrent Charge OuterVoltage InnerVoltage
    QuasiFermiPotential DisplacementCurrent eCurrent hCurrent TotalCurrent
    Charge OuterVoltage InnerVoltage QuasiFermiPotential DisplacementCurrent
    eCurrent hCurrent TotalCurrent Charge OuterVoltage
    InnerVoltage QuasiFermiPotential DisplacementCurrent eCurrent hCurrent
    TotalCurrent Charge ]
}

Data {
      0.00000000000000E+00
      0.00000000000000E+00   0.00000000000000E+00   0.00000000000000E+00   0.00000000000000E+00  -4.55089797321726E-21
      5.64725281927323E-34  -4.55089797321669E-21   5.57938970927765E-18   0.00000000000000E+00   0.00000000000000E+00
      0.00000000000000E+00   0.00000000000000E+00   0.00000000000000E+00   0.00000000000000E+00   0.00000000000000E+00
      4.55774458555274E-18   0.00000000000000E+00   0.00000000000000E+00   0.00000000000000E+00   0.00000000000000E+00
      7.08276068464904E-21  -1.14741609395710E-33   7.08276068464789E-21  -1.48846547211446E-17   0.00000000000000E+00
      0.00000000000000E+00   0.00000000000000E+00   0.00000000000000E+00  -2.53186271143178E-21   5.82690812029778E-34
     -2.53186271143120E-21   4.74752042631418E-18
      0.00000000000000E+00
      0.00000000000000E+00   0.00000000000000E+00   0.00000000000000E+00   0.00000000000000E+00   2.55994509346197E-20
      5.53905839731629E-34   2.55994509346202E-20   5.57733280101127E-18   0.00000000000000E+00   0.00000000000000E+00
      0.00000000000000E+00   0.00000000000000E+00   0.00000000000000E+00   0.00000000000000E+00   0.00000000000000E+00
      4.55057030854281E-18   0.00000000000000E+00   0.00000000000000E+00   0.00000000000000E+00   0.00000000000000E+00
     -1.27407984058396E-19  -1.13917307341094E-33  -1.27407984058397E-19  -1.48737543480293E-17   0.00000000000000E+00
      0.00000000000000E+00   0.00000000000000E+00   0.00000000000000E+00   1.01808533123776E-19   5.85267233679316E-34
      1.01808533123777E-19   4.74585123847523E-18
      1.00000000000000E-03
      0.00000000000000E+00   9.72938935939022E-13   0.00000000000000E+00   0.00000000000000E+00  -4.88379945518969E-12
      5.41842362831579E-34  -4.88379945518969E-12   5.57731645041578E-18   0.00000000000000E+00   0.00000000000000E+00
      0.00000000000000E+00   0.00000000000000E+00   0.00000000000000E+00   0.00000000000000E+00   0.00000000000000E+00
      4.54992206783132E-18   0.00000000000000E+00   0.00000000000000E+00   0.00000000000000E+00   0.00000000000000E+00
     -2.98326534077666E-19  -1.09824225969052E-33  -2.98326534077667E-19  -1.48737276102028E-17   5.00000000000000E-05
      4.99999990230892E-05   0.00000000000000E+00   0.00000000000000E+00   4.88379975351622E-12   5.56399896858938E-34
      4.88379975351622E-12   4.74648909195568E-18
      2.09333333333333E-03
      0.00000000000000E+00   2.03352619865900E-12   0.00000000000000E+00   0.00000000000000E+00  -1.02076270691657E-11
      5.51410545905111E-34  -1.02076270691657E-11   5.57729857393535E-18   0.00000000000000E+00   0.00000000000000E+00
      0.00000000000000E+00   0.00000000000000E+00   0.00000000000000E+00   0.00000000000000E+00   0.00000000000000E+00
      4.54921333354558E-18   0.00000000000000E+00   0.00000000000000E+00   0.00000000000000E+00   0.00000000000000E+00
      3.14405219463663E-19  -1.12247526904842E-33   3.14405219463661E-19  -1.48736984001436E-17   1.04666666666667E-04
      1.04666664624836E-04   0.00000000000000E+00   0.00000000000000E+00   1.02076267547605E-11   5.71064723143315E-34
      1.02076267547605E-11   4.74718649266274E-18
      3.29600000000000E-03
      0.00000000000000E+00   3.19625618814774E-12   0.00000000000000E+00   0.00000000000000E+00  -1.60441168168427E-11
      5.34959973735114E-34  -1.60441168168427E-11   5.57727891001354E-18   0.00000000000000E+00   0.00000000000000E+00
      0.00000000000000E+00   0.00000000000000E+00   0.00000000000000E+00   0.00000000000000E+00   0.00000000000000E+00
      4.54843373655015E-18   0.00000000000000E+00   0.00000000000000E+00   0.00000000000000E+00   0.00000000000000E+00
     -8.53805998363122E-20  -1.08371037445165E-33  -8.53805998363133E-20  -1.48736662971678E-17   1.64800000000000E-04
      1.64799996790685E-04   0.00000000000000E+00   0.00000000000000E+00   1.60441169022233E-11   5.48750400716540E-34
      1.60441169022233E-11   4.74795365060412E-18
      4.61893333333333E-03
      0.00000000000000E+00   4.47042066578361E-12   0.00000000000000E+00   0.00000000000000E+00  -2.24399404149691E-11
      5.56950619934287E-34  -2.24399404149691E-11   5.57725727995003E-18   0.00000000000000E+00   0.00000000000000E+00
      0.00000000000000E+00   0.00000000000000E+00   0.00000000000000E+00   0.00000000000000E+00   0.00000000000000E+00
      4.54757619281235E-18   0.00000000000000E+00   0.00000000000000E+00   0.00000000000000E+00   0.00000000000000E+00
     -2.68518075275288E-19  -1.12208018443946E-33  -2.68518075275289E-19  -1.48736310178562E-17   2.30946666666667E-04
      2.30946662177985E-04   0.00000000000000E+00   0.00000000000000E+00   2.24399406834872E-11   5.65129564505170E-34
      2.24399406834872E-11   4.74879754509388E-18
      6.07416000000000E-03
      0.00000000000000E+00   5.86606972161592E-12   0.00000000000000E+00   0.00000000000000E+00  -2.94455415831308E-11
      5.61355431530074E-34  -2.94455415831308E-11   5.57723348718359E-18   0.00000000000000E+00   0.00000000000000E+00
      0.00000000000000E+00   0.00000000000000E+00   0.00000000000000E+00   0.00000000000000E+00   0.00000000000000E+00
      4.54663291036192E-18   0.00000000000000E+00   0.00000000000000E+00   0.00000000000000E+00   0.00000000000000E+00
      1.45905105373613E-19  -1.09801255520827E-33   1.45905105373611E-19  -1.48735922516728E-17   3.03708000000000E-04
      3.03707994109977E-04   0.00000000000000E+00   0.00000000000000E+00   2.94455414372257E-11   5.36657123678193E-34
      2.94455414372257E-11   4.74972585412736E-18
      7.67490933333333E-03
      0.00000000000000E+00   7.39404022184987E-12   0.00000000000000E+00   0.00000000000000E+00  -3.71152916590523E-11
      5.39501337265434E-34  -3.71152916590523E-11   5.57720731550782E-18   0.00000000000000E+00   0.00000000000000E+00
      0.00000000000000E+00   0.00000000000000E+00   0.00000000000000E+00   0.00000000000000E+00   0.00000000000000E+00
      4.54559531859391E-18   0.00000000000000E+00   0.00000000000000E+00   0.00000000000000E+00   0.00000000000000E+00
      4.73945268490687E-20  -1.09270919432982E-33   4.73945268490676E-20  -1.48735496585072E-17   3.83745466666667E-04
      3.83745459242437E-04   0.00000000000000E+00   0.00000000000000E+00   3.71152916116578E-11   5.53207857064382E-34
      3.71152916116578E-11   4.75074702440541E-18
      9.43573360000000E-03
      0.00000000000000E+00   9.06597937961983E-12   0.00000000000000E+00   0.00000000000000E+00  -4.55076409115751E-11
      5.74835565783613E-34  -4.55076409115751E-11   5.57717852710896E-18   0.00000000000000E+00   0.00000000000000E+00
      0.00000000000000E+00   0.00000000000000E+00   0.00000000000000E+00   0.00000000000000E+00   0.00000000000000E+00
      4.54445399052138E-18   0.00000000000000E+00   0.00000000000000E+00   0.00000000000000E+00   0.00000000000000E+00
      1.96980363500808E-19  -1.13308189056242E-33   1.96980363500807E-19  -1.48735028660236E-17   4.71786680000000E-04
      4.71786670897010E-04   0.00000000000000E+00   0.00000000000000E+00   4.55076407145948E-11   5.58246324778805E-34
      4.55076407145948E-11   4.75187034839330E-18
      1.13726402933333E-02
      0.00000000000000E+00   1.08943740152596E-11   0.00000000000000E+00   0.00000000000000E+00  -5.46852384218071E-11
      5.37080146262256E-34  -5.46852384218071E-11   5.57714686040793E-18   0.00000000000000E+00   0.00000000000000E+00
      0.00000000000000E+00   0.00000000000000E+00   0.00000000000000E+00   0.00000000000000E+00   0.00000000000000E+00
      4.54319855727733E-18   0.00000000000000E+00   0.00000000000000E+00   0.00000000000000E+00   0.00000000000000E+00
      1.53236739812161E-19  -1.09517184429168E-33   1.53236739812160E-19  -1.48734514668097E-17   5.68632014666667E-04
      5.68632003727830E-04   0.00000000000000E+00   0.00000000000000E+00   5.46852382685704E-11   5.58091698029430E-34
      5.46852382685704E-11   4.75310604912445E-18
      1.35032376560000E-02
      0.00000000000000E+00   1.28925635608670E-11   0.00000000000000E+00   0.00000000000000E+00  -6.47150179614378E-11
      5.46753066454769E-34  -6.47150179614378E-11   5.57711202768708E-18   0.00000000000000E+00   0.00000000000000E+00
      0.00000000000000E+00   0.00000000000000E+00   0.00000000000000E+00   0.00000000000000E+00   0.00000000000000E+00
      4.54181761409526E-18   0.00000000000000E+00   0.00000000000000E+00   0.00000000000000E+00   0.00000000000000E+00
      2.97048559617143E-19  -1.08981144844556E-33   2.97048559617142E-19  -1.48733950153139E-17   6.75161882800000E-04
      6.75161869854827E-04   0.00000000000000E+00   0.00000000000000E+00   6.47150176643892E-11   5.43058381990790E-34
      6.47150176643892E-11   4.75446537353156E-18
      1.58468947549333E-02
      0.00000000000000E+00   1.50747522520830E-11   0.00000000000000E+00   0.00000000000000E+00  -7.56682234551780E-11
      5.67336390883579E-34  -7.56682234551780E-11   5.57707371248039E-18   0.00000000000000E+00   0.00000000000000E+00
      0.00000000000000E+00   0.00000000000000E+00   0.00000000000000E+00   0.00000000000000E+00   0.00000000000000E+00
      4.54029861692240E-18   0.00000000000000E+00   0.00000000000000E+00   0.00000000000000E+00   0.00000000000000E+00
      4.50823615591994E-20  -1.12898277929797E-33   4.50823615591982E-20  -1.48733330245701E-17   7.92344737746667E-04
      7.92344722610420E-04   0.00000000000000E+00   0.00000000000000E+00   7.56682234100957E-11   5.61646388414389E-34
      7.56682234100957E-11   4.75596069516735E-18
      1.84249175637600E-02
      0.00000000000000E+00   1.74559863701040E-11   0.00000000000000E+00   0.00000000000000E+00  -8.76203695268070E-11
      5.47805692141881E-34  -8.76203695268070E-11   5.57703156670340E-18   0.00000000000000E+00   0.00000000000000E+00
      0.00000000000000E+00   0.00000000000000E+00   0.00000000000000E+00   0.00000000000000E+00   0.00000000000000E+00
      4.53862776873533E-18   0.00000000000000E+00   0.00000000000000E+00   0.00000000000000E+00   0.00000000000000E+00
     -4.95247943431421E-20  -1.09889591073133E-33  -4.95247943431432E-20  -1.48732649627041E-17   9.21245878188001E-04
      9.21245860660823E-04   0.00000000000000E+00   0.00000000000000E+00   8.76203695763318E-11   5.51090218589448E-34
      8.76203695763318E-11   4.75760562726541E-18
      2.12607426534693E-02
      0.00000000000000E+00   2.00521542416816E-11   0.00000000000000E+00   0.00000000000000E+00  -1.00651102632871E-10
      5.33170117263981E-34  -1.00651102632871E-10   5.57698520749707E-18   0.00000000000000E+00   0.00000000000000E+00
      0.00000000000000E+00   0.00000000000000E+00   0.00000000000000E+00   0.00000000000000E+00   0.00000000000000E+00
      4.53678989453758E-18   0.00000000000000E+00   0.00000000000000E+00   0.00000000000000E+00   0.00000000000000E+00
      3.90336329252521E-19  -1.11493137717260E-33   3.90336329252520E-19  -1.48731902492240E-17   1.06303713267347E-03
      1.06303711253956E-03   0.00000000000000E+00   0.00000000000000E+00   1.00651102242535E-10   5.81761259908618E-34
      1.00651102242535E-10   4.75941514718932E-18
      2.43801502521496E-02
      0.00000000000000E+00   2.28799057733795E-11   0.00000000000000E+00   0.00000000000000E+00  -1.14843953607868E-10
      5.69391622601523E-34  -1.14843953607868E-10   5.57693421375734E-18   0.00000000000000E+00   0.00000000000000E+00
      0.00000000000000E+00   0.00000000000000E+00   0.00000000000000E+00   0.00000000000000E+00   0.00000000000000E+00
      4.53476830391466E-18   0.00000000000000E+00   0.00000000000000E+00   0.00000000000000E+00   0.00000000000000E+00
      4.74296443116956E-19  -1.14591211646920E-33   4.74296443116955E-19  -1.48731082510967E-17   1.21900751260748E-03
      1.21900748963433E-03   0.00000000000000E+00   0.00000000000000E+00   1.14843953133571E-10   5.76520493867677E-34
      1.14843953133571E-10   4.76140573342474E-18
      2.78114986106979E-02
      0.00000000000000E+00   2.59565971821740E-11   0.00000000000000E+00   0.00000000000000E+00  -1.30285952515609E-10
      5.69658889253837E-34  -1.30285952515609E-10   5.57687812231885E-18   0.00000000000000E+00   0.00000000000000E+00
      0.00000000000000E+00   0.00000000000000E+00   0.00000000000000E+00   0.00000000000000E+00   0.00000000000000E+00
      4.53254463991449E-18   0.00000000000000E+00   0.00000000000000E+00   0.00000000000000E+00   0.00000000000000E+00
      5.99201773061880E-19  -1.09760473461433E-33   5.99201773061879E-19  -1.48730182786219E-17   1.39057493053490E-03
      1.39057490447255E-03   0.00000000000000E+00   0.00000000000000E+00   1.30285951916407E-10   5.27945845360493E-34
      1.30285951916407E-10   4.76359551638856E-18
      3.15859818051010E-02
      0.00000000000000E+00   2.93001658265203E-11   0.00000000000000E+00   0.00000000000000E+00  -1.47067058582519E-10
      5.86384719102323E-34  -1.47067058582519E-10   5.57681642375880E-18   0.00000000000000E+00   0.00000000000000E+00
      0.00000000000000E+00   0.00000000000000E+00   0.00000000000000E+00   0.00000000000000E+00   0.00000000000000E+00
      4.53009871290481E-18   0.00000000000000E+00   0.00000000000000E+00   0.00000000000000E+00   0.00000000000000E+00
      1.31492618831428E-18  -1.14019709324442E-33   1.31492618831428E-18  -1.48729195811262E-17   1.57929909025505E-03
      1.57929906083557E-03   0.00000000000000E+00   0.00000000000000E+00   1.47067057267593E-10   5.53812374142094E-34
      1.47067057267593E-10   4.76600444446257E-18
      3.57379133189445E-02
      0.00000000000000E+00   3.29289920328539E-11   0.00000000000000E+00   0.00000000000000E+00  -1.65279387546672E-10
      5.56070168509819E-34  -1.65279387546672E-10   5.57674855778313E-18   0.00000000000000E+00   0.00000000000000E+00
      0.00000000000000E+00   0.00000000000000E+00   0.00000000000000E+00   0.00000000000000E+00   0.00000000000000E+00
      4.52740831791476E-18   0.00000000000000E+00   0.00000000000000E+00   0.00000000000000E+00   0.00000000000000E+00
      1.99455224292167E-18  -1.07366953586431E-33   1.99455224292167E-18  -1.48728113424981E-17   1.78689566594722E-03
      1.78689563288419E-03   0.00000000000000E+00   0.00000000000000E+00   1.65279385552120E-10   5.17599367354491E-34
      1.65279385552120E-10   4.76865446680018E-18
      4.03050379841723E-02
      0.00000000000000E+00   3.68616975248400E-11   0.00000000000000E+00   0.00000000000000E+00  -1.85016192707191E-10
      5.70111616979289E-34  -1.85016192707191E-10   5.57667390815363E-18   0.00000000000000E+00   0.00000000000000E+00
      0.00000000000000E+00   0.00000000000000E+00   0.00000000000000E+00   0.00000000000000E+00   0.00000000000000E+00
      4.52444903383123E-18   0.00000000000000E+00   0.00000000000000E+00   0.00000000000000E+00   0.00000000000000E+00
     -5.41107134224617E-18  -1.07939762026239E-33  -5.41107134224617E-18  -1.48726926766028E-17   2.01525189920861E-03
      2.01525186219694E-03   0.00000000000000E+00   0.00000000000000E+00   1.85016198118262E-10   5.09286003283102E-34
      1.85016198118262E-10   4.77156973461792E-18
      4.53288751159228E-02
      0.00000000000000E+00   4.11168406288915E-11   0.00000000000000E+00   0.00000000000000E+00  -2.06370543093627E-10
      5.63124747175076E-34  -2.06370543093627E-10   5.57659179711056E-18   0.00000000000000E+00   0.00000000000000E+00
      0.00000000000000E+00   0.00000000000000E+00   0.00000000000000E+00   0.00000000000000E+00   0.00000000000000E+00
      4.52119400266235E-18   0.00000000000000E+00   0.00000000000000E+00   0.00000000000000E+00   0.00000000000000E+00
      4.51504926735904E-18  -1.11207288232879E-33   4.51504926735903E-18  -1.48725626226355E-17   2.26644375579614E-03
      2.26644371451210E-03   0.00000000000000E+00   0.00000000000000E+00   2.06370538578578E-10   5.48948135153712E-34
      2.06370538578578E-10   4.77477682286254E-18
      5.08550959608485E-02
      0.00000000000000E+00   4.57126415527426E-11   0.00000000000000E+00   0.00000000000000E+00  -2.29433689351647E-10
      5.58435571732029E-34  -2.29433689351647E-10   5.57650147924073E-18   0.00000000000000E+00   0.00000000000000E+00
      0.00000000000000E+00   0.00000000000000E+00   0.00000000000000E+00   0.00000000000000E+00   0.00000000000000E+00
      4.51761368688883E-18   0.00000000000000E+00   0.00000000000000E+00   0.00000000000000E+00   0.00000000000000E+00
      6.77137643954090E-18  -1.08368457898654E-33   6.77137643954090E-18  -1.48724201404653E-17   2.54275479804242E-03
      2.54275475214399E-03   0.00000000000000E+00   0.00000000000000E+00   2.29433682580270E-10   5.25249007254510E-34
      2.29433682580270E-10   4.77830497433578E-18
      5.69339388902666E-02
      0.00000000000000E+00   5.06665759928068E-11   0.00000000000000E+00   0.00000000000000E+00  -2.54293023500512E-10
      5.54015731180789E-34  -2.54293023500512E-10   5.57640213473627E-18   0.00000000000000E+00   0.00000000000000E+00
      0.00000000000000E+00   0.00000000000000E+00   0.00000000000000E+00   0.00000000000000E+00   0.00000000000000E+00
      4.51367560275876E-18   0.00000000000000E+00   0.00000000000000E+00   0.00000000000000E+00   0.00000000000000E+00
      9.86437594265636E-18  -1.04729489465725E-33   9.86437594265635E-18  -1.48722641060776E-17   2.84669694451333E-03
      2.84669689364096E-03   0.00000000000000E+00   0.00000000000000E+00   2.54293013636136E-10   4.93279163476461E-34
      2.54293013636136E-10   4.78218636858259E-18
      6.36206661126266E-02
      0.00000000000000E+00   5.59948354447468E-11   0.00000000000000E+00   0.00000000000000E+00  -2.81029596199596E-10
      5.42226142933103E-34  -2.81029596199596E-10   5.57629286198389E-18   0.00000000000000E+00   0.00000000000000E+00
      0.00000000000000E+00   0.00000000000000E+00   0.00000000000000E+00   0.00000000000000E+00   0.00000000000000E+00
      4.50934402715606E-18   0.00000000000000E+00   0.00000000000000E+00   0.00000000000000E+00   0.00000000000000E+00
      1.44515368820552E-17  -1.03599487868513E-33   1.44515368820552E-17  -1.48720933072285E-17   3.18103330563133E-03
      3.18103324940920E-03   0.00000000000000E+00   0.00000000000000E+00   2.81029581748059E-10   4.93768735752024E-34
      2.81029581748059E-10   4.78645641808857E-18
      7.09760660572226E-02
      0.00000000000000E+00   6.17117964546842E-11   0.00000000000000E+00   0.00000000000000E+00  -3.09715166800268E-10
      5.37401288044531E-34  -3.09715166800268E-10   5.57617266941837E-18   0.00000000000000E+00   0.00000000000000E+00
      0.00000000000000E+00   0.00000000000000E+00   0.00000000000000E+00   0.00000000000000E+00   0.00000000000000E+00
      4.50457967543413E-18   0.00000000000000E+00   0.00000000000000E+00   0.00000000000000E+00   0.00000000000000E+00
      2.13234575221983E-17  -1.03310929416576E-33   2.13234575221983E-17  -1.48719064394480E-17   3.54880330286113E-03
      3.54880324089900E-03   0.00000000000000E+00   0.00000000000000E+00   3.09715145476810E-10   4.95708006121226E-34
      3.09715145476810E-10   4.79115409459543E-18
      7.90670059962782E-02
      0.00000000000000E+00   6.78292761078780E-11   0.00000000000000E+00   0.00000000000000E+00  -3.40408736887368E-10
      5.25282674775517E-34  -3.40408736887368E-10   5.57604046656734E-18   0.00000000000000E+00   0.00000000000000E+00
      0.00000000000000E+00   0.00000000000000E+00   0.00000000000000E+00   0.00000000000000E+00   0.00000000000000E+00
      4.49933934735810E-18   0.00000000000000E+00   0.00000000000000E+00   0.00000000000000E+00   0.00000000000000E+00
      3.11402777583795E-17  -1.01356468867965E-33   3.11402777583795E-17  -1.48717021025595E-17   3.95335029981391E-03
      3.95335023170969E-03   0.00000000000000E+00   0.00000000000000E+00   3.40408705747090E-10   4.88282013904132E-34
      3.40408705747090E-10   4.79632228863412E-18
      8.79670399292394E-02
      0.00000000000000E+00   7.43557826406917E-11   0.00000000000000E+00   0.00000000000000E+00  -3.73152533764771E-10
      5.48282299653005E-34  -3.73152533764771E-10   5.57589505420806E-18   0.00000000000000E+00   0.00000000000000E+00
      0.00000000000000E+00   0.00000000000000E+00   0.00000000000000E+00   0.00000000000000E+00   0.00000000000000E+00
      4.49357553804445E-18   0.00000000000000E+00   0.00000000000000E+00   0.00000000000000E+00   0.00000000000000E+00
      4.59179763192984E-17  -1.04013754711231E-33   4.59179763192984E-17  -1.48714787979797E-17   4.39835199646197E-03
      4.39835192180501E-03   0.00000000000000E+00   0.00000000000000E+00   3.73152487846795E-10   4.91855247459301E-34
      3.73152487846795E-10   4.80200820572719E-18
      9.77570772554967E-02
      0.00000000000000E+00   8.12955685457366E-11   0.00000000000000E+00   0.00000000000000E+00  -4.07967446103217E-10
      5.43136648828637E-34  -4.07967446103217E-10   5.57573511354824E-18   0.00000000000000E+00   0.00000000000000E+00
      0.00000000000000E+00   0.00000000000000E+00   0.00000000000000E+00   0.00000000000000E+00   0.00000000000000E+00
      4.48723601044823E-18   0.00000000000000E+00   0.00000000000000E+00   0.00000000000000E+00   0.00000000000000E+00
      3.22845323437246E-17  -1.03608876821092E-33   3.22845323437246E-17  -1.48712349270395E-17   4.88785386277484E-03
      4.88785378115025E-03   0.00000000000000E+00   0.00000000000000E+00   4.07967413818684E-10   4.92952119382285E-34
      4.07967413818684E-10   4.80826380304299E-18
      1.07757077255497E-01
      0.00000000000000E+00   8.81321981807622E-11   0.00000000000000E+00   0.00000000000000E+00  -4.42262462615016E-10
      5.15004449818924E-34  -4.42262462615016E-10   5.57557175657909E-18   0.00000000000000E+00   0.00000000000000E+00
      0.00000000000000E+00   0.00000000000000E+00   0.00000000000000E+00   0.00000000000000E+00   0.00000000000000E+00
      4.48076123299154E-18   0.00000000000000E+00   0.00000000000000E+00   0.00000000000000E+00   0.00000000000000E+00
      7.77285720553860E-17  -9.62566346579334E-34   7.77285720553860E-17  -1.48709877226475E-17   5.38785386277483E-03
      5.38785377428623E-03   0.00000000000000E+00   0.00000000000000E+00   4.42262384886444E-10   4.47561896760410E-34
      4.42262384886444E-10   4.81465473307684E-18
      1.17757077255497E-01
      0.00000000000000E+00   9.47214200389535E-11   0.00000000000000E+00   0.00000000000000E+00  -4.75314052051254E-10
      5.32801373015398E-34  -4.75314052051254E-10   5.57540841349720E-18   0.00000000000000E+00   0.00000000000000E+00
      0.00000000000000E+00   0.00000000000000E+00   0.00000000000000E+00   0.00000000000000E+00   0.00000000000000E+00
      4.47428716863821E-18   0.00000000000000E+00   0.00000000000000E+00   0.00000000000000E+00   0.00000000000000E+00
      7.83856659549409E-17  -1.01413306661585E-33   7.83856659549409E-17  -1.48707424234270E-17   5.88785386277483E-03
      5.88785376767065E-03   0.00000000000000E+00   0.00000000000000E+00   4.75313973665588E-10   4.81331693600453E-34
      4.75313973665588E-10   4.82104684129160E-18
      1.27757077255497E-01
      0.00000000000000E+00   1.01070519114820E-10   0.00000000000000E+00   0.00000000000000E+00  -5.07158885517942E-10
      5.35319623176317E-34  -5.07158885517942E-10   5.57524508417293E-18   0.00000000000000E+00   0.00000000000000E+00
      0.00000000000000E+00   0.00000000000000E+00   0.00000000000000E+00   0.00000000000000E+00   0.00000000000000E+00
      4.46781381171221E-18   0.00000000000000E+00   0.00000000000000E+00   0.00000000000000E+00   0.00000000000000E+00
      9.40895671331643E-17  -9.89077304460262E-34   9.40895671331643E-17  -1.48704990176688E-17   6.38785386277483E-03
      6.38785376129619E-03   0.00000000000000E+00   0.00000000000000E+00   5.07158791428375E-10   4.53757681283946E-34
      5.07158791428375E-10   4.82744012178367E-18
      1.37757077255497E-01
      0.00000000000000E+00   1.07186659297864E-10   0.00000000000000E+00   0.00000000000000E+00  -5.37833226782368E-10
      5.63910698083243E-34  -5.37833226782368E-10   5.57508176847675E-18   0.00000000000000E+00   0.00000000000000E+00
      0.00000000000000E+00   0.00000000000000E+00   0.00000000000000E+00   0.00000000000000E+00   0.00000000000000E+00
      4.46134115658242E-18   0.00000000000000E+00   0.00000000000000E+00   0.00000000000000E+00   0.00000000000000E+00
      7.62756908727756E-17  -1.01622327474677E-33   7.62756908727756E-17  -1.48702574937435E-17   6.88785386277483E-03
      6.88785375515565E-03   0.00000000000000E+00   0.00000000000000E+00   5.37833150506677E-10   4.52312576663528E-34
      5.37833150506677E-10   4.83383456868434E-18
      1.47757077255497E-01
      0.00000000000000E+00   1.13076964651109E-10   0.00000000000000E+00   0.00000000000000E+00  -5.67372938720233E-10
      5.31757312031418E-34  -5.67372938720233E-10   5.57491846627959E-18   0.00000000000000E+00   0.00000000000000E+00
      0.00000000000000E+00   0.00000000000000E+00   0.00000000000000E+00   0.00000000000000E+00   0.00000000000000E+00
      4.45486919768562E-18   0.00000000000000E+00   0.00000000000000E+00   0.00000000000000E+00   0.00000000000000E+00
      7.57123707214609E-17  -9.81413393896143E-34   7.57123707214609E-17  -1.48700178401310E-17   7.38785386277483E-03
      7.38785374924186E-03   0.00000000000000E+00   0.00000000000000E+00   5.67372863007862E-10   4.49656081864724E-34
      5.67372863007862E-10   4.84023017616578E-18
      1.57757077255497E-01
      0.00000000000000E+00   1.18748434068644E-10   0.00000000000000E+00   0.00000000000000E+00  -5.95813312894389E-10
      5.56261215764555E-34  -5.95813312894389E-10   5.57475517745210E-18   0.00000000000000E+00   0.00000000000000E+00
      0.00000000000000E+00   0.00000000000000E+00   0.00000000000000E+00   0.00000000000000E+00   0.00000000000000E+00
      4.44839792947790E-18   0.00000000000000E+00   0.00000000000000E+00   0.00000000000000E+00   0.00000000000000E+00
      7.42541046804156E-17  -9.97917557894664E-34   7.42541046804156E-17  -1.48697800453537E-17   7.88785386277484E-03
      7.88785374354782E-03   0.00000000000000E+00   0.00000000000000E+00   5.95813238640284E-10   4.41656342130109E-34
      5.95813238640284E-10   4.84662693842364E-18
      1.67757077255497E-01
      0.00000000000000E+00   1.24207944526765E-10   0.00000000000000E+00   0.00000000000000E+00  -6.23189003506607E-10
      5.54191960151106E-34  -6.23189003506607E-10   5.57459190186535E-18   0.00000000000000E+00   0.00000000000000E+00
      0.00000000000000E+00   0.00000000000000E+00   0.00000000000000E+00   0.00000000000000E+00   0.00000000000000E+00
      4.44192734646004E-18   0.00000000000000E+00   0.00000000000000E+00   0.00000000000000E+00   0.00000000000000E+00
     -4.40002798803836E-19  -9.87448358058628E-34  -4.40002798803837E-19  -1.48695440980120E-17   8.38785386277484E-03
      8.38785373806659E-03   0.00000000000000E+00   0.00000000000000E+00   6.23189003946610E-10   4.33256397907522E-34
      6.23189003946610E-10   4.85302484968663E-18
      1.77757077255497E-01
      0.00000000000000E+00   1.29462248645621E-10   0.00000000000000E+00   0.00000000000000E+00  -6.49534151080512E-10
      5.46007144502048E-34  -6.49534151080512E-10   5.57442863939110E-18   0.00000000000000E+00   0.00000000000000E+00
      0.00000000000000E+00   0.00000000000000E+00   0.00000000000000E+00   0.00000000000000E+00   0.00000000000000E+00
      4.43545744319226E-18   0.00000000000000E+00   0.00000000000000E+00   0.00000000000000E+00   0.00000000000000E+00
      7.19614835825688E-17  -9.60835130058126E-34   7.19614835825688E-17  -1.48693099868042E-17   8.88785386277484E-03
      8.88785373279140E-03   0.00000000000000E+00   0.00000000000000E+00   6.49534079119028E-10   4.14827985556077E-34
      6.49534079119028E-10   4.85942390422078E-18
      1.87757077255497E-01
      0.00000000000000E+00   1.34517940552229E-10   0.00000000000000E+00   0.00000000000000E+00  -6.74881934046144E-10
      5.44943966064151E-34  -6.74881934046144E-10   5.57426538990189E-18   0.00000000000000E+00   0.00000000000000E+00
      0.00000000000000E+00   0.00000000000000E+00   0.00000000000000E+00   0.00000000000000E+00   0.00000000000000E+00
      4.42898821428113E-18   0.00000000000000E+00   0.00000000000000E+00   0.00000000000000E+00   0.00000000000000E+00
      7.12324721015426E-17  -9.50349924690184E-34   7.12324721015426E-17  -1.48690777005108E-17   9.38785386277484E-03
      9.38785372771563E-03   0.00000000000000E+00   0.00000000000000E+00   6.74881862813672E-10   4.05405958626032E-34
      6.74881862813672E-10   4.86582409632778E-18
      1.97757077255497E-01
      0.00000000000000E+00   1.39381495706954E-10   0.00000000000000E+00   0.00000000000000E+00  -6.99264958822473E-10