DF-ISE text

Info {
  version   = 1.0
  type      = xyplot
  datasets  = [
    "time"
    "source OuterVoltage" "source InnerVoltage" "source QuasiFermiPotential" "source DisplacementCurrent" "source eCurrent"
    "source hCurrent" "source TotalCurrent" "source Charge" "gate OuterVoltage" "gate InnerVoltage"
    "gate QuasiFermiPotential" "gate DisplacementCurrent" "gate eCurrent" "gate hCurrent" "gate TotalCurrent"
    "gate Charge" "substrate OuterVoltage" "substrate InnerVoltage" "substrate QuasiFermiPotential" "substrate DisplacementCurrent"
    "substrate eCurrent" "substrate hCurrent" "substrate TotalCurrent" "substrate Charge" "drain OuterVoltage"
    "drain InnerVoltage" "drain QuasiFermiPotential" "drain DisplacementCurrent" "drain eCurrent" "drain hCurrent"
    "drain TotalCurrent" "drain Charge" ]
  functions = [
    Time
    OuterVoltage InnerVoltage QuasiFermiPotential DisplacementCurrent eCurrent
    hCurrent TotalCurrent Charge OuterVoltage InnerVoltage
    QuasiFermiPotential DisplacementCurrent eCurrent hCurrent TotalCurrent
    Charge OuterVoltage InnerVoltage QuasiFermiPotential DisplacementCurrent
    eCurrent hCurrent TotalCurrent Charge OuterVoltage
    InnerVoltage QuasiFermiPotential DisplacementCurrent eCurrent hCurrent
    TotalCurrent Charge ]
}

Data {
      0.00000000000000E+00
      0.00000000000000E+00   0.00000000000000E+00   0.00000000000000E+00   0.00000000000000E+00  -1.43058863256724E-21
      6.41455571488272E-34  -1.43058863256660E-21   4.80726239709699E-18   0.00000000000000E+00   0.00000000000000E+00
      0.00000000000000E+00   0.00000000000000E+00   0.00000000000000E+00   0.00000000000000E+00   0.00000000000000E+00
      3.37655214090585E-18   0.00000000000000E+00   0.00000000000000E+00   0.00000000000000E+00   0.00000000000000E+00
      9.02781635454057E-22  -1.25219459728537E-33   9.02781635452805E-22  -1.21806663265679E-17   0.00000000000000E+00
      0.00000000000000E+00   0.00000000000000E+00   0.00000000000000E+00   5.27806997113186E-22   6.10739025797102E-34
      5.27806997113797E-22   3.99685178856512E-18
      0.00000000000000E+00
      0.00000000000000E+00   0.00000000000000E+00   0.00000000000000E+00   0.00000000000000E+00  -1.47930667273202E-20
      6.05316218809240E-34  -1.47930667273196E-20   4.80535514028971E-18   0.00000000000000E+00   0.00000000000000E+00
      0.00000000000000E+00   0.00000000000000E+00   0.00000000000000E+00   0.00000000000000E+00   0.00000000000000E+00
      3.37051557666760E-18   0.00000000000000E+00   0.00000000000000E+00   0.00000000000000E+00   0.00000000000000E+00
     -3.15991529855957E-21  -1.22301067601943E-33  -3.15991529856080E-21  -1.21713629909957E-17   0.00000000000000E+00
      0.00000000000000E+00   0.00000000000000E+00   0.00000000000000E+00   1.79529820258798E-20   6.17694457210186E-34
      1.79529820258804E-20   3.99549227403844E-18
      1.00000000000000E-03
      0.00000000000000E+00   1.52439168304261E-12   0.00000000000000E+00   0.00000000000000E+00  -7.27273403375863E-12
      6.01077545968349E-34  -7.27273403375863E-12   4.80533698293817E-18   0.00000000000000E+00   0.00000000000000E+00
      0.00000000000000E+00   0.00000000000000E+00   0.00000000000000E+00   0.00000000000000E+00   0.00000000000000E+00
      3.36995061545775E-18   0.00000000000000E+00   0.00000000000000E+00   0.00000000000000E+00   0.00000000000000E+00
     -8.68680088888502E-20  -1.21424657078117E-33  -8.68680088888514E-20  -1.21713449212089E-17   5.00000000000000E-05
      4.99999984632473E-05   0.00000000000000E+00   0.00000000000000E+00   7.27273412062663E-12   6.13169024812820E-34
      7.27273412062663E-12   3.99605732281301E-18
      2.09333333333333E-03
      0.00000000000000E+00   3.18598275325775E-12   0.00000000000000E+00   0.00000000000000E+00  -1.51999982560686E-11
      6.15053836794978E-34  -1.51999982560686E-11   4.80531713112548E-18   0.00000000000000E+00   0.00000000000000E+00
      0.00000000000000E+00   0.00000000000000E+00   0.00000000000000E+00   0.00000000000000E+00   0.00000000000000E+00
      3.36933293292708E-18   0.00000000000000E+00   0.00000000000000E+00   0.00000000000000E+00   0.00000000000000E+00
     -5.66268418946940E-21  -1.22591511124784E-33  -5.66268418947062E-21  -1.21713251851603E-17   1.04666666666667E-04
      1.04666663454850E-04   0.00000000000000E+00   0.00000000000000E+00   1.51999982617313E-11   6.10861274452863E-34
      1.51999982617313E-11   3.99667512110773E-18
      3.29600000000000E-03
      0.00000000000000E+00   5.00737883228044E-12   0.00000000000000E+00   0.00000000000000E+00  -2.38896176486441E-11
      6.52648090846455E-34  -2.38896176486441E-11   4.80529529440414E-18   0.00000000000000E+00   0.00000000000000E+00
      0.00000000000000E+00   0.00000000000000E+00   0.00000000000000E+00   0.00000000000000E+00   0.00000000000000E+00
      3.36865349225988E-18   0.00000000000000E+00   0.00000000000000E+00   0.00000000000000E+00   0.00000000000000E+00
      7.86153232912827E-21  -1.25180037678299E-33   7.86153232912702E-21  -1.21713034999220E-17   1.64800000000000E-04
      1.64799994952029E-04   0.00000000000000E+00   0.00000000000000E+00   2.38896176407826E-11   5.99152285936537E-34
      2.38896176407826E-11   3.99735471325802E-18
      4.61893333333333E-03
      0.00000000000000E+00   7.00304143794294E-12   0.00000000000000E+00   0.00000000000000E+00  -3.34106955152970E-11
      6.39677400352852E-34  -3.34106955152970E-11   4.80527127434125E-18   0.00000000000000E+00   0.00000000000000E+00
      0.00000000000000E+00   0.00000000000000E+00   0.00000000000000E+00   0.00000000000000E+00   0.00000000000000E+00
      3.36790611975494E-18   0.00000000000000E+00   0.00000000000000E+00   0.00000000000000E+00   0.00000000000000E+00
      1.15008006522555E-20  -1.23539488410409E-33   1.15008006522543E-20  -1.21712796756778E-17   2.30946666666667E-04
      2.30946659606845E-04   0.00000000000000E+00   0.00000000000000E+00   3.34106955037962E-11   5.95717483751235E-34
      3.34106955037962E-11   3.99810228158164E-18
      6.07416000000000E-03
      0.00000000000000E+00   9.18863520042451E-12   0.00000000000000E+00   0.00000000000000E+00  -4.38378625616425E-11
      6.44539122943057E-34  -4.38378625616425E-11   4.80524485267264E-18   0.00000000000000E+00   0.00000000000000E+00
      0.00000000000000E+00   0.00000000000000E+00   0.00000000000000E+00   0.00000000000000E+00   0.00000000000000E+00
      3.36708402478058E-18   0.00000000000000E+00   0.00000000000000E+00   0.00000000000000E+00   0.00000000000000E+00
      1.81053796785708E-20  -1.23695708621969E-33   1.81053796785695E-20  -1.21712535046934E-17   3.03708000000000E-04
      3.03707990736861E-04   0.00000000000000E+00   0.00000000000000E+00   4.38378625435372E-11   5.92417963276633E-34
      4.38378625435372E-11   3.99892462724017E-18
      7.67490933333333E-03
      0.00000000000000E+00   1.15810267880440E-11   0.00000000000000E+00   0.00000000000000E+00  -5.52514852145536E-11
      6.33037136871351E-34  -5.52514852145536E-11   4.80521578932222E-18   0.00000000000000E+00   0.00000000000000E+00
      0.00000000000000E+00   0.00000000000000E+00   0.00000000000000E+00   0.00000000000000E+00   0.00000000000000E+00
      3.36617973817251E-18   0.00000000000000E+00   0.00000000000000E+00   0.00000000000000E+00   0.00000000000000E+00
      3.01309638608567E-20  -1.25488786639852E-33   3.01309638608554E-20  -1.21712247597453E-17   3.83745466666667E-04
      3.83745454991741E-04   0.00000000000000E+00   0.00000000000000E+00   5.52514851844226E-11   6.21850729527166E-34
      5.52514851844226E-11   3.99982923225062E-18
      9.43573360000000E-03
      0.00000000000000E+00   1.41982822217414E-11   0.00000000000000E+00   0.00000000000000E+00  -6.77378598121809E-11
      6.33757910235670E-34  -6.77378598121809E-11   4.80518382022382E-18   0.00000000000000E+00   0.00000000000000E+00
      0.00000000000000E+00   0.00000000000000E+00   0.00000000000000E+00   0.00000000000000E+00   0.00000000000000E+00
      3.36518504449017E-18   0.00000000000000E+00   0.00000000000000E+00   0.00000000000000E+00   0.00000000000000E+00
      5.25048350010678E-20  -1.23885828014432E-33   5.25048350010665E-20  -1.21711931924383E-17   4.71786680000000E-04
      4.71786665686605E-04   0.00000000000000E+00   0.00000000000000E+00   6.77378597596761E-11   6.05100369908648E-34
      6.77378597596761E-11   4.00082432772430E-18
      1.13726402933333E-02
      0.00000000000000E+00   1.70597850378971E-11   0.00000000000000E+00   0.00000000000000E+00  -8.13893635017642E-11
      6.37809796538941E-34  -8.13893635017642E-11   4.80514865492598E-18   0.00000000000000E+00   0.00000000000000E+00
      0.00000000000000E+00   0.00000000000000E+00   0.00000000000000E+00   0.00000000000000E+00   0.00000000000000E+00
      3.36409090752146E-18   0.00000000000000E+00   0.00000000000000E+00   0.00000000000000E+00   0.00000000000000E+00
      6.50253307550534E-20  -1.21804452442645E-33   6.50253307550521E-20  -1.21711585314091E-17   5.68632014666667E-04
      5.68631997468575E-04   0.00000000000000E+00   0.00000000000000E+00   8.13893634367389E-11   5.80234727887505E-34
      8.13893634367389E-11   4.00191896896167E-18
      1.35032376560000E-02
      0.00000000000000E+00   2.01861884861009E-11   0.00000000000000E+00   0.00000000000000E+00  -9.63045408882326E-11
      6.17141150767303E-34  -9.63045408882326E-11   4.80510997395766E-18   0.00000000000000E+00   0.00000000000000E+00
      0.00000000000000E+00   0.00000000000000E+00   0.00000000000000E+00   0.00000000000000E+00   0.00000000000000E+00
      3.36288738836444E-18   0.00000000000000E+00   0.00000000000000E+00   0.00000000000000E+00   0.00000000000000E+00
      5.37299317758858E-20  -1.20617982321139E-33   5.37299317758846E-20  -1.21711204804164E-17   6.75161882800000E-04
      6.75161862450155E-04   0.00000000000000E+00   0.00000000000000E+00   9.63045408345026E-11   5.89038672444086E-34
      9.63045408345026E-11   4.00312311809427E-18
      1.58468947549333E-02
      0.00000000000000E+00   2.35994654797982E-11   0.00000000000000E+00   0.00000000000000E+00  -1.12588102184642E-10
      6.25723082845147E-34  -1.12588102184642E-10   4.80506742593168E-18   0.00000000000000E+00   0.00000000000000E+00
      0.00000000000000E+00   0.00000000000000E+00   0.00000000000000E+00   0.00000000000000E+00   0.00000000000000E+00
      3.36156355535042E-18   0.00000000000000E+00   0.00000000000000E+00   0.00000000000000E+00   0.00000000000000E+00
      1.42200147950172E-19  -1.21293095071337E-33   1.42200147950171E-19  -1.21710787163199E-17   7.92344737746667E-04
      7.92344713955881E-04   0.00000000000000E+00   0.00000000000000E+00   1.12588102042441E-10   5.87207867868226E-34
      1.12588102042441E-10   4.00444773503775E-18
      1.84249175637600E-02
      0.00000000000000E+00   2.73228253452125E-11   0.00000000000000E+00   0.00000000000000E+00  -1.30350808093477E-10
      6.12106590995960E-34  -1.30350808093477E-10   4.80502062435936E-18   0.00000000000000E+00   0.00000000000000E+00
      0.00000000000000E+00   0.00000000000000E+00   0.00000000000000E+00   0.00000000000000E+00   0.00000000000000E+00
      3.36010738499678E-18   0.00000000000000E+00   0.00000000000000E+00   0.00000000000000E+00   0.00000000000000E+00
      1.41773519449884E-19  -1.18266765490035E-33   1.41773519449883E-19  -1.21710328869500E-17   9.21245878188001E-04
      9.21245850643672E-04   0.00000000000000E+00   0.00000000000000E+00   1.30350807951703E-10   5.70561063904387E-34
      1.30350807951703E-10   4.00590487759391E-18
      2.12607426534693E-02
      0.00000000000000E+00   3.13807218779012E-11   0.00000000000000E+00   0.00000000000000E+00  -1.49709208679435E-10
      6.41507151257618E-34  -1.49709208679435E-10   4.80496914414808E-18   0.00000000000000E+00   0.00000000000000E+00
      0.00000000000000E+00   0.00000000000000E+00   0.00000000000000E+00   0.00000000000000E+00   0.00000000000000E+00
      3.35850565310341E-18   0.00000000000000E+00   0.00000000000000E+00   0.00000000000000E+00   0.00000000000000E+00
      2.25736425217050E-19  -1.20851227077133E-33   2.25736425217049E-19  -1.21709826088826E-17   1.06303713267347E-03
      1.06303710103835E-03   0.00000000000000E+00   0.00000000000000E+00   1.49709208453698E-10   5.67005119513717E-34
      1.49709208453698E-10   4.00750781163111E-18
      2.43801502521496E-02
      0.00000000000000E+00   3.57987303460023E-11   0.00000000000000E+00   0.00000000000000E+00  -1.70785201894771E-10
      6.16410446005750E-34  -1.70785201894771E-10   4.80491251775008E-18   0.00000000000000E+00   0.00000000000000E+00
      0.00000000000000E+00   0.00000000000000E+00   0.00000000000000E+00   0.00000000000000E+00   0.00000000000000E+00
      3.35674381501371E-18   0.00000000000000E+00   0.00000000000000E+00   0.00000000000000E+00   0.00000000000000E+00
      3.41179550251843E-19  -1.18676357564519E-33   3.41179550251841E-19  -1.21709274651252E-17   1.21900751260748E-03
      1.21900747651854E-03   0.00000000000000E+00   0.00000000000000E+00   1.70785201553591E-10   5.70353129639443E-34
      1.70785201553591E-10   4.00927113236140E-18
      2.78114986106979E-02
      0.00000000000000E+00   4.06033992496061E-11   0.00000000000000E+00   0.00000000000000E+00  -1.93705370541503E-10
      6.45752368227762E-34  -1.93705370541503E-10   4.80485023092797E-18   0.00000000000000E+00   0.00000000000000E+00
      0.00000000000000E+00   0.00000000000000E+00   0.00000000000000E+00   0.00000000000000E+00   0.00000000000000E+00
      3.35480587396842E-18   0.00000000000000E+00   0.00000000000000E+00   0.00000000000000E+00   0.00000000000000E+00
      5.13729570192612E-19  -1.20861793009335E-33   5.13729570192611E-19  -1.21708670027380E-17   1.39057493053490E-03
      1.39057488960234E-03   0.00000000000000E+00   0.00000000000000E+00   1.93705370027773E-10   5.62865561865589E-34
      1.93705370027773E-10   4.01121089784159E-18
      3.15859818051010E-02
      0.00000000000000E+00   4.58220746878365E-11   0.00000000000000E+00   0.00000000000000E+00  -2.18600048504256E-10
      6.19204847353264E-34  -2.18600048504256E-10   4.80478171809883E-18   0.00000000000000E+00   0.00000000000000E+00
      0.00000000000000E+00   0.00000000000000E+00   0.00000000000000E+00   0.00000000000000E+00   0.00000000000000E+00
      3.35267423637523E-18   0.00000000000000E+00   0.00000000000000E+00   0.00000000000000E+00   0.00000000000000E+00
      7.79570049646458E-19  -1.17325635731562E-33   7.79570049646457E-19  -1.21708007304138E-17   1.57929909025505E-03
      1.57929904406152E-03   0.00000000000000E+00   0.00000000000000E+00   2.18600047724685E-10   5.54051509962355E-34
      2.18600047724685E-10   4.01334477593977E-18
      3.57379133189445E-02
      0.00000000000000E+00   5.14826307327803E-11   0.00000000000000E+00   0.00000000000000E+00  -2.45602064996937E-10
      6.34544181071697E-34  -2.45602064996937E-10   4.80470635721559E-18   0.00000000000000E+00   0.00000000000000E+00
      0.00000000000000E+00   0.00000000000000E+00   0.00000000000000E+00   0.00000000000000E+00   0.00000000000000E+00
      3.35032955270015E-18   0.00000000000000E+00   0.00000000000000E+00   0.00000000000000E+00   0.00000000000000E+00
      1.09509546004773E-18  -1.22329171129437E-33   1.09509546004773E-18  -1.21707281160513E-17   1.78689566594722E-03
      1.78689561404725E-03   0.00000000000000E+00   0.00000000000000E+00   2.45602063901842E-10   5.88747530222672E-34
      2.45602063901842E-10   4.01569220613554E-18
      4.03050379841723E-02
      0.00000000000000E+00   5.76131289057251E-11   0.00000000000000E+00   0.00000000000000E+00  -2.74845107804477E-10
      6.53253808554910E-34  -2.74845107804477E-10   4.80462346413956E-18   0.00000000000000E+00   0.00000000000000E+00
      0.00000000000000E+00   0.00000000000000E+00   0.00000000000000E+00   0.00000000000000E+00   0.00000000000000E+00
      3.34775054256241E-18   0.00000000000000E+00   0.00000000000000E+00   0.00000000000000E+00   0.00000000000000E+00
      3.72456464829157E-18  -1.20319347687063E-33   3.72456464829157E-18  -1.21706485843687E-17   2.01525189920861E-03
      2.01525184112843E-03   0.00000000000000E+00   0.00000000000000E+00   2.74845104079913E-10   5.49939668315722E-34
      2.74845104079913E-10   4.01827457766670E-18
      4.53288751159228E-02
      0.00000000000000E+00   6.42413772149992E-11   0.00000000000000E+00   0.00000000000000E+00  -3.06461625423279E-10
      6.00453188286663E-34  -3.06461625423279E-10   4.80453228645381E-18   0.00000000000000E+00   0.00000000000000E+00
      0.00000000000000E+00   0.00000000000000E+00   0.00000000000000E+00   0.00000000000000E+00   0.00000000000000E+00
      3.34491380247589E-18   0.00000000000000E+00   0.00000000000000E+00   0.00000000000000E+00   0.00000000000000E+00
     -8.49271985091636E-18  -1.16464987535905E-33  -8.49271985091636E-18  -1.21705615146189E-17   2.26644375579614E-03
      2.26644369103398E-03   0.00000000000000E+00   0.00000000000000E+00   3.06461633915999E-10   5.64196687072388E-34
      3.06461633915999E-10   4.02111542568923E-18
      5.08550959608485E-02
      0.00000000000000E+00   7.13943919780387E-11   0.00000000000000E+00   0.00000000000000E+00  -3.40580263211951E-10
      6.28528455580810E-34  -3.40580263211951E-10   4.80443199666208E-18   0.00000000000000E+00   0.00000000000000E+00
      0.00000000000000E+00   0.00000000000000E+00   0.00000000000000E+00   0.00000000000000E+00   0.00000000000000E+00
      3.34179359451434E-18   0.00000000000000E+00   0.00000000000000E+00   0.00000000000000E+00   0.00000000000000E+00
      3.59040447295211E-18  -1.21465165179469E-33   3.59040447295211E-18  -1.21704662384576E-17   2.54275479804242E-03
      2.54275472606924E-03   0.00000000000000E+00   0.00000000000000E+00   3.40580259621546E-10   5.86123196213882E-34
      3.40580259621546E-10   4.02424064728112E-18
      5.69339388902666E-02
      0.00000000000000E+00   7.90977344982847E-11   0.00000000000000E+00   0.00000000000000E+00  -3.77322654782895E-10
      6.09242681614772E-34  -3.77322654782895E-10   4.80432168471301E-18   0.00000000000000E+00   0.00000000000000E+00
      0.00000000000000E+00   0.00000000000000E+00   0.00000000000000E+00   0.00000000000000E+00   0.00000000000000E+00
      3.33836161405068E-18   0.00000000000000E+00   0.00000000000000E+00   0.00000000000000E+00   0.00000000000000E+00
      1.15589829657350E-17  -1.15341017880091E-33   1.15589829657350E-17  -1.21703620381055E-17   2.84669694451333E-03
      2.84669686477433E-03   0.00000000000000E+00   0.00000000000000E+00   3.77322643223911E-10   5.44167497186135E-34
      3.77322643223911E-10   4.02767873934179E-18
      6.36206661126266E-02
      0.00000000000000E+00   8.73746946675196E-11   0.00000000000000E+00   0.00000000000000E+00  -4.16799577467138E-10
      6.07848039182361E-34  -4.16799577467138E-10   4.80420034978286E-18   0.00000000000000E+00   0.00000000000000E+00
      0.00000000000000E+00   0.00000000000000E+00   0.00000000000000E+00   0.00000000000000E+00   0.00000000000000E+00
      3.33458673448162E-18   0.00000000000000E+00   0.00000000000000E+00   0.00000000000000E+00   0.00000000000000E+00
      7.54613617657341E-18  -1.17748610103297E-33   7.54613617657341E-18  -1.21702481448704E-17   3.18103330563133E-03
      3.18103321754823E-03   0.00000000000000E+00   0.00000000000000E+00   4.16799569921002E-10   5.69638061850610E-34
      4.16799569921002E-10   4.03146106060598E-18
      7.09760660572226E-02
      0.00000000000000E+00   9.62453639248354E-11   0.00000000000000E+00   0.00000000000000E+00  -4.59106471134252E-10
      6.05854761241667E-34  -4.59106471134252E-10   4.80406689124297E-18   0.00000000000000E+00   0.00000000000000E+00
      0.00000000000000E+00   0.00000000000000E+00   0.00000000000000E+00   0.00000000000000E+00   0.00000000000000E+00
      3.33043472669626E-18   0.00000000000000E+00   0.00000000000000E+00   0.00000000000000E+00   0.00000000000000E+00
      6.01708998738538E-18  -1.14341041249319E-33   6.01708998738538E-18  -1.21701237382023E-17   3.54880330286113E-03
      3.54880320583539E-03   0.00000000000000E+00   0.00000000000000E+00   4.59106465117162E-10   5.37555651251519E-34
      4.59106465117162E-10   4.03562212026305E-18
      7.90670059962782E-02
      0.00000000000000E+00   1.05725505727497E-10   0.00000000000000E+00   0.00000000000000E+00  -5.04318081061408E-10
      6.22512330941494E-34  -5.04318081061408E-10   4.80392009873316E-18   0.00000000000000E+00   0.00000000000000E+00
      0.00000000000000E+00   0.00000000000000E+00   0.00000000000000E+00   0.00000000000000E+00   0.00000000000000E+00
      3.32586795080297E-18   0.00000000000000E+00   0.00000000000000E+00   0.00000000000000E+00   0.00000000000000E+00
      1.63924774160746E-17  -1.16023524879305E-33   1.63924774160746E-17  -1.21699879454495E-17   3.95335029981391E-03
      3.95335019323110E-03   0.00000000000000E+00   0.00000000000000E+00   5.04318064668931E-10   5.37722917851553E-34
      5.04318064668931E-10   4.04019989591342E-18
      8.79670399292394E-02
      0.00000000000000E+00   1.15825281540903E-10   0.00000000000000E+00   0.00000000000000E+00  -5.52482429441686E-10
      6.27137646557286E-34  -5.52482429441686E-10   4.80375864125088E-18   0.00000000000000E+00   0.00000000000000E+00
      0.00000000000000E+00   0.00000000000000E+00   0.00000000000000E+00   0.00000000000000E+00   0.00000000000000E+00
      3.32084501739459E-18   0.00000000000000E+00   0.00000000000000E+00   0.00000000000000E+00   0.00000000000000E+00
      3.28097157375396E-17  -1.13432214834387E-33   3.28097157375396E-17  -1.21698398425263E-17   4.39835199646197E-03
      4.39835187969739E-03   0.00000000000000E+00   0.00000000000000E+00   5.52482396631970E-10   5.07184501786587E-34
      5.52482396631970E-10   4.04523618388081E-18
      9.77570772554967E-02
      0.00000000000000E+00   1.26547833958957E-10   0.00000000000000E+00   0.00000000000000E+00  -6.03613927516804E-10
      6.34733108135136E-34  -6.03613927516804E-10   4.80358105516142E-18   0.00000000000000E+00   0.00000000000000E+00
      0.00000000000000E+00   0.00000000000000E+00   0.00000000000000E+00   0.00000000000000E+00   0.00000000000000E+00
      3.31532041536723E-18   0.00000000000000E+00   0.00000000000000E+00   0.00000000000000E+00   0.00000000000000E+00
      3.44853964339776E-17  -1.14797282316284E-33   3.44853964339776E-17  -1.21696784557512E-17   4.88785386277484E-03
      4.88785373520062E-03   0.00000000000000E+00   0.00000000000000E+00   6.03613893031407E-10   5.13239715027703E-34
      6.03613893031407E-10   4.05077698522255E-18
      1.07757077255497E-01
      0.00000000000000E+00   1.37093363434048E-10   0.00000000000000E+00   0.00000000000000E+00  -6.53898443940227E-10
      6.05320275390990E-34  -6.53898443940227E-10   4.80339967884070E-18   0.00000000000000E+00   0.00000000000000E+00
      0.00000000000000E+00   0.00000000000000E+00   0.00000000000000E+00   0.00000000000000E+00   0.00000000000000E+00
      3.30967800003634E-18   0.00000000000000E+00   0.00000000000000E+00   0.00000000000000E+00   0.00000000000000E+00
      4.65829410433369E-17  -1.10217628259899E-33   4.65829410433369E-17  -1.21695152481773E-17   5.38785386277483E-03
      5.38785372456942E-03   0.00000000000000E+00   0.00000000000000E+00   6.53898397357286E-10   4.96856007207998E-34
      6.53898397357286E-10   4.05643756930018E-18
      1.17757077255497E-01
      0.00000000000000E+00   1.47239968247148E-10   0.00000000000000E+00   0.00000000000000E+00  -7.02277989240390E-10
      6.20158253046624E-34  -7.02277989240390E-10   4.80321832092749E-18   0.00000000000000E+00   0.00000000000000E+00
      0.00000000000000E+00   0.00000000000000E+00   0.00000000000000E+00   0.00000000000000E+00   0.00000000000000E+00
      3.30403625678511E-18   0.00000000000000E+00   0.00000000000000E+00   0.00000000000000E+00   0.00000000000000E+00
      3.99727311463183E-17  -1.11945996067516E-33   3.99727311463183E-17  -1.21693536873923E-17   5.88785386277483E-03
      5.88785371434034E-03   0.00000000000000E+00   0.00000000000000E+00   7.02277949267659E-10   4.99301707628540E-34
      7.02277949267659E-10   4.06209910967975E-18
      1.27757077255497E-01
      0.00000000000000E+00   1.57000036695707E-10   0.00000000000000E+00   0.00000000000000E+00  -7.48811896706738E-10
      6.11977368999613E-34  -7.48811896706738E-10   4.80303698125131E-18   0.00000000000000E+00   0.00000000000000E+00
      0.00000000000000E+00   0.00000000000000E+00   0.00000000000000E+00   0.00000000000000E+00   0.00000000000000E+00
      3.29839518013467E-18   0.00000000000000E+00   0.00000000000000E+00   0.00000000000000E+00   0.00000000000000E+00
      3.51213024952445E-17  -1.09756407351500E-33   3.51213024952445E-17  -1.21691937623633E-17   6.38785386277483E-03
      6.38785370450091E-03   0.00000000000000E+00   0.00000000000000E+00   7.48811861585435E-10   4.85586704515382E-34
      7.48811861585435E-10   4.06776160097731E-18
      1.37757077255497E-01
      0.00000000000000E+00   1.66385795946054E-10   0.00000000000000E+00   0.00000000000000E+00  -7.93558768432263E-10
      6.25739491962273E-34  -7.93558768432263E-10   4.80285565964194E-18   0.00000000000000E+00   0.00000000000000E+00
      0.00000000000000E+00   0.00000000000000E+00   0.00000000000000E+00   0.00000000000000E+00   0.00000000000000E+00
      3.29275476467864E-18   0.00000000000000E+00   0.00000000000000E+00   0.00000000000000E+00   0.00000000000000E+00
      3.98891602899886E-17  -1.09746559653190E-33   3.98891602899886E-17  -1.21690354621793E-17   6.88785386277483E-03
      6.88785369503879E-03   0.00000000000000E+00   0.00000000000000E+00   7.93558728543103E-10   4.71726104569624E-34
      7.93558728543103E-10   4.07342503785878E-18
      1.47757077255497E-01
      0.00000000000000E+00   1.75409294308979E-10   0.00000000000000E+00   0.00000000000000E+00  -8.36576255171860E-10
      6.22680403399790E-34  -8.36576255171860E-10   4.80267435592991E-18   0.00000000000000E+00   0.00000000000000E+00
      0.00000000000000E+00   0.00000000000000E+00   0.00000000000000E+00   0.00000000000000E+00   0.00000000000000E+00
      3.28711500509025E-18   0.00000000000000E+00   0.00000000000000E+00   0.00000000000000E+00   0.00000000000000E+00
      3.20557176570171E-17  -1.08812855959226E-33   3.20557176570171E-17  -1.21688787760509E-17   7.38785386277483E-03
      7.38785368594184E-03   0.00000000000000E+00   0.00000000000000E+00   8.36576223116142E-10   4.65448156192468E-34
      8.36576223116142E-10   4.07908941503077E-18
      1.57757077255497E-01
      0.00000000000000E+00   1.84082395331591E-10   0.00000000000000E+00   0.00000000000000E+00  -8.77921177240999E-10
      6.35549573198945E-34  -8.77921177240999E-10   4.80249306994503E-18   0.00000000000000E+00   0.00000000000000E+00
      0.00000000000000E+00   0.00000000000000E+00   0.00000000000000E+00   0.00000000000000E+00   0.00000000000000E+00
      3.28147589603203E-18   0.00000000000000E+00   0.00000000000000E+00   0.00000000000000E+00   0.00000000000000E+00
      3.72182417640171E-17  -1.08902340449809E-33   3.72182417640171E-17  -1.21687236932000E-17   7.88785386277484E-03
      7.88785367719809E-03   0.00000000000000E+00   0.00000000000000E+00   8.77921140022757E-10   4.53473831299141E-34
      8.77921140022757E-10   4.08475472722289E-18
      1.67757077255497E-01
      0.00000000000000E+00   1.92416749867921E-10   0.00000000000000E+00   0.00000000000000E+00  -9.17649259761248E-10
      6.25474028790062E-34  -9.17649259761248E-10   4.80231180151644E-18   0.00000000000000E+00   0.00000000000000E+00
      0.00000000000000E+00   0.00000000000000E+00   0.00000000000000E+00   0.00000000000000E+00   0.00000000000000E+00
      3.27583743218593E-18   0.00000000000000E+00   0.00000000000000E+00   0.00000000000000E+00   0.00000000000000E+00
      4.06318440201310E-17  -1.07913947987902E-33   4.06318440201310E-17  -1.21685702028761E-17   8.38785386277484E-03
      8.38785366879582E-03   0.00000000000000E+00   0.00000000000000E+00   9.17649219129404E-10   4.53665451088962E-34
      9.17649219129404E-10   4.09042096917376E-18
      1.77757077255497E-01
      0.00000000000000E+00   2.00423705845500E-10   0.00000000000000E+00   0.00000000000000E+00  -9.55814902294258E-10
      6.38259592216947E-34  -9.55814902294258E-10   4.80213055047486E-18   0.00000000000000E+00   0.00000000000000E+00
      0.00000000000000E+00   0.00000000000000E+00   0.00000000000000E+00   0.00000000000000E+00   0.00000000000000E+00
      3.27019960832996E-18   0.00000000000000E+00   0.00000000000000E+00   0.00000000000000E+00   0.00000000000000E+00
      3.59511199681943E-17  -1.07230555656920E-33   3.59511199681943E-17  -1.21684182944767E-17   8.88785386277484E-03
      8.88785366072356E-03   0.00000000000000E+00   0.00000000000000E+00   9.55814866343138E-10   4.34045964352251E-34
      9.55814866343138E-10   4.09608813567195E-18
      1.87757077255497E-01
      0.00000000000000E+00   2.08114448449429E-10   0.00000000000000E+00   0.00000000000000E+00  -9.92471623044037E-10
      6.07662387923425E-34  -9.92471623044037E-10   4.80194931664908E-18   0.00000000000000E+00   0.00000000000000E+00
      0.00000000000000E+00   0.00000000000000E+00   0.00000000000000E+00   0.00000000000000E+00   0.00000000000000E+00
      3.26456241918234E-18   0.00000000000000E+00   0.00000000000000E+00   0.00000000000000E+00   0.00000000000000E+00
      3.21272521246690E-17  -1.05734805751813E-33   3.21272521246690E-17  -1.21682679573467E-17   9.38785386277484E-03
      9.38785365297005E-03   0.00000000000000E+00   0.00000000000000E+00   9.92471590916785E-10   4.49685669594709E-34
      9.92471590916785E-10   4.10175622151539E-18
      1.97757077255497E-01
      0.00000000000000E+00   2.15499855641479E-10   0.00000000000000E+00   0.00000000000000E+00  -1.02767143654397E-09