DF-ISE text

Info {
  version   = 1.0
  type      = xyplot
  datasets  = [
    "time"
    "source OuterVoltage" "source InnerVoltage" "source QuasiFermiPotential" "source DisplacementCurrent" "source eCurrent"
    "source hCurrent" "source TotalCurrent" "source Charge" "gate OuterVoltage" "gate InnerVoltage"
    "gate QuasiFermiPotential" "gate DisplacementCurrent" "gate eCurrent" "gate hCurrent" "gate TotalCurrent"
    "gate Charge" "substrate OuterVoltage" "substrate InnerVoltage" "substrate QuasiFermiPotential" "substrate DisplacementCurrent"
    "substrate eCurrent" "substrate hCurrent" "substrate TotalCurrent" "substrate Charge" "drain OuterVoltage"
    "drain InnerVoltage" "drain QuasiFermiPotential" "drain DisplacementCurrent" "drain eCurrent" "drain hCurrent"
    "drain TotalCurrent" "drain Charge" ]
  functions = [
    Time
    OuterVoltage InnerVoltage QuasiFermiPotential DisplacementCurrent eCurrent
    hCurrent TotalCurrent Charge OuterVoltage InnerVoltage
    QuasiFermiPotential DisplacementCurrent eCurrent hCurrent TotalCurrent
    Charge OuterVoltage InnerVoltage QuasiFermiPotential DisplacementCurrent
    eCurrent hCurrent TotalCurrent Charge OuterVoltage
    InnerVoltage QuasiFermiPotential DisplacementCurrent eCurrent hCurrent
    TotalCurrent Charge ]
}

Data {
      0.00000000000000E+00
      0.00000000000000E+00   0.00000000000000E+00   0.00000000000000E+00   0.00000000000000E+00  -1.70559388391603E-21
      8.66256114336131E-34  -1.70559388391516E-21   5.80741732096194E-18   0.00000000000000E+00   0.00000000000000E+00
      0.00000000000000E+00   0.00000000000000E+00   0.00000000000000E+00   0.00000000000000E+00   0.00000000000000E+00
      2.56470503410452E-18   0.00000000000000E+00   0.00000000000000E+00   0.00000000000000E+00   0.00000000000000E+00
      1.74944680221760E-19  -2.08481903821956E-33   1.74944680221758E-19  -1.48086495251168E-17   0.00000000000000E+00
      0.00000000000000E+00   0.00000000000000E+00   0.00000000000000E+00  -1.73239086337844E-19   1.21856292388343E-33
     -1.73239086337842E-19   6.43652717005038E-18
      0.00000000000000E+00
      0.00000000000000E+00   0.00000000000000E+00   0.00000000000000E+00   0.00000000000000E+00  -2.55558078372119E-19
      9.10576775675912E-34  -2.55558078372118E-19   5.80254006125567E-18   0.00000000000000E+00   0.00000000000000E+00
      0.00000000000000E+00   0.00000000000000E+00   0.00000000000000E+00   0.00000000000000E+00   0.00000000000000E+00
      2.55735445366949E-18   0.00000000000000E+00   0.00000000000000E+00   0.00000000000000E+00   0.00000000000000E+00
      6.04510818962243E-18  -2.10362699086369E-33   6.04510818962243E-18  -1.47918609416005E-17   0.00000000000000E+00
     -9.18447372075268E-19   0.00000000000000E+00   0.00000000000000E+00  -5.78955011125032E-18   1.19305021518777E-33
     -5.78955011125032E-18   6.43196642667534E-18
      1.00000000000000E-03
      0.00000000000000E+00   7.56205067391598E-12   0.00000000000000E+00   0.00000000000000E+00  -4.03603807477566E-11
      9.17874518340648E-34  -4.03603807477566E-11   5.80215101139006E-18   0.00000000000000E+00   0.00000000000000E+00
      0.00000000000000E+00   0.00000000000000E+00   0.00000000000000E+00   0.00000000000000E+00   0.00000000000000E+00
      2.55166987273032E-18   0.00000000000000E+00   0.00000000000000E+00   0.00000000000000E+00   0.00000000000000E+00
      6.04408996539016E-19  -2.09219281399286E-33   6.04408996539014E-19  -1.47917611529481E-17   4.30000000000000E-04
      4.29999992348025E-04   0.00000000000000E+00   0.00000000000000E+00   4.03603801433476E-11   1.17431829565221E-33
      4.03603801433476E-11   6.43794026882774E-18
      2.08666666666667E-03
      0.00000000000000E+00   1.55373810817526E-11   0.00000000000000E+00   0.00000000000000E+00  -8.29252726652538E-11
      8.74221655590047E-34  -8.29252726652538E-11   5.80172825966517E-18   0.00000000000000E+00   0.00000000000000E+00
      0.00000000000000E+00   0.00000000000000E+00   0.00000000000000E+00   0.00000000000000E+00   0.00000000000000E+00
      2.54549305706400E-18   0.00000000000000E+00   0.00000000000000E+00   0.00000000000000E+00   0.00000000000000E+00
      4.45826840996433E-17  -2.08680242152990E-33   4.45826840996433E-17  -1.47916537342871E-17   8.97266666666667E-04
      8.97266650944670E-04   0.00000000000000E+00   0.00000000000000E+00   8.29252280825697E-11   1.21258076593986E-33
      8.29252280825697E-11   6.44443241755788E-18
      3.28200000000000E-03
      0.00000000000000E+00   2.40139357739518E-11   0.00000000000000E+00   0.00000000000000E+00  -1.28164372410000E-10
      9.35515464496657E-34  -1.28164372410000E-10   5.80126325171499E-18   0.00000000000000E+00   0.00000000000000E+00
      0.00000000000000E+00   0.00000000000000E+00   0.00000000000000E+00   0.00000000000000E+00   0.00000000000000E+00
      2.53869907256723E-18   0.00000000000000E+00   0.00000000000000E+00   0.00000000000000E+00   0.00000000000000E+00
      6.93994979473522E-17  -2.06602511197760E-33   6.93994979473522E-17  -1.47915367916855E-17   1.41126000000000E-03
      1.41125997570082E-03   0.00000000000000E+00   0.00000000000000E+00   1.28164303010502E-10   1.13050964748095E-33
      1.28164303010502E-10   6.45157446740324E-18
      4.59686666666667E-03
      0.00000000000000E+00   3.29823525572265E-11   0.00000000000000E+00   0.00000000000000E+00  -1.76027012649802E-10
      9.15264564357528E-34  -1.76027012649802E-10   5.80075176576634E-18   0.00000000000000E+00   0.00000000000000E+00
      0.00000000000000E+00   0.00000000000000E+00   0.00000000000000E+00   0.00000000000000E+00   0.00000000000000E+00
      2.53122630574097E-18   0.00000000000000E+00   0.00000000000000E+00   0.00000000000000E+00   0.00000000000000E+00
      9.69330059093665E-17  -2.08034030540759E-33   9.69330059093665E-17  -1.47914096191800E-17   1.97665266666667E-03
      1.97665263329264E-03   0.00000000000000E+00   0.00000000000000E+00   1.76026915716797E-10   1.16507574105006E-33
      1.76026915716797E-10   6.45943154767266E-18
      6.04322000000000E-03
      0.00000000000000E+00   4.24252580810863E-11   0.00000000000000E+00   0.00000000000000E+00  -2.26419981052387E-10
      8.72542349777332E-34  -2.26419981052387E-10   5.80018915860592E-18   0.00000000000000E+00   0.00000000000000E+00
      0.00000000000000E+00   0.00000000000000E+00   0.00000000000000E+00   0.00000000000000E+00   0.00000000000000E+00
      2.52300700215809E-18   0.00000000000000E+00   0.00000000000000E+00   0.00000000000000E+00   0.00000000000000E+00
      1.49019914969930E-16  -1.97772678207855E-33   1.49019914969930E-16  -1.47912714890691E-17   2.59858460000000E-03
      2.59858455707108E-03   0.00000000000000E+00   0.00000000000000E+00   2.26419832032472E-10   1.10518443230121E-33
      2.26419832032472E-10   6.46807532830506E-18
      7.63420866666667E-03
      0.00000000000000E+00   5.23155103887918E-11   0.00000000000000E+00   0.00000000000000E+00  -2.79198053030311E-10
      8.98807166331733E-34  -2.79198053030311E-10   5.79957032357152E-18   0.00000000000000E+00   0.00000000000000E+00
      0.00000000000000E+00   0.00000000000000E+00   0.00000000000000E+00   0.00000000000000E+00   0.00000000000000E+00
      2.51396665608241E-18   0.00000000000000E+00   0.00000000000000E+00   0.00000000000000E+00   0.00000000000000E+00
      2.14161727610406E-16  -1.92486415652032E-33   2.14161727610406E-16  -1.47911216588486E-17   3.28270972666667E-03
      3.28270967373027E-03   0.00000000000000E+00   0.00000000000000E+00   2.79197838868583E-10   1.02605699018858E-33
      2.79197838868583E-10   6.47758467919463E-18
      9.38429620000000E-03
      0.00000000000000E+00   6.26144602964786E-11   0.00000000000000E+00   0.00000000000000E+00  -3.34155094651370E-10
      8.92663448268348E-34  -3.34155094651370E-10   5.79888964436846E-18   0.00000000000000E+00   0.00000000000000E+00
      0.00000000000000E+00   0.00000000000000E+00   0.00000000000000E+00   0.00000000000000E+00   0.00000000000000E+00
      2.50402333997548E-18   0.00000000000000E+00   0.00000000000000E+00   0.00000000000000E+00   0.00000000000000E+00
      2.27662247104121E-18  -1.94054436627802E-33   2.27662247104121E-18  -1.47909593808407E-17   4.03524736600000E-03
      4.03524730264259E-03   0.00000000000000E+00   0.00000000000000E+00   3.34155092374748E-10   1.04788091800967E-33
      3.34155092374748E-10   6.48804639649675E-18
      1.12977252364444E-02
      0.00000000000000E+00   7.32086483264848E-11   0.00000000000000E+00   0.00000000000000E+00  -3.90684351019737E-10
      9.20744870142015E-34  -3.90684351019737E-10   5.79814548172009E-18   0.00000000000000E+00   0.00000000000000E+00
      0.00000000000000E+00   0.00000000000000E+00   0.00000000000000E+00   0.00000000000000E+00   0.00000000000000E+00
      2.49315324464197E-18   0.00000000000000E+00   0.00000000000000E+00   0.00000000000000E+00   0.00000000000000E+00
      1.80318924397446E-18  -1.92455015541111E-33   1.80318924397446E-18  -1.47907849684092E-17   4.85802185167111E-03
      4.85802177759406E-03   0.00000000000000E+00   0.00000000000000E+00   3.90684349216548E-10   1.00380528526909E-33
      3.90684349216548E-10   6.49948624204716E-18
      1.33897409829570E-02
      0.00000000000000E+00   8.40346878334267E-11   0.00000000000000E+00   0.00000000000000E+00  -4.48447867121473E-10
      9.17444277085396E-34  -4.48447867121473E-10   5.79733191888814E-18   0.00000000000000E+00   0.00000000000000E+00
      0.00000000000000E+00   0.00000000000000E+00   0.00000000000000E+00   0.00000000000000E+00   0.00000000000000E+00
      2.48127010121949E-18   0.00000000000000E+00   0.00000000000000E+00   0.00000000000000E+00   0.00000000000000E+00
      9.03664915059508E-19  -1.86518132692096E-33   9.03664915059506E-19  -1.47905978413486E-17   5.75758862267153E-03
      5.75758853764033E-03   0.00000000000000E+00   0.00000000000000E+00   4.48447866217808E-10   9.47737049835560E-34
      4.48447866217808E-10   6.51199582124106E-18
      1.56770115324775E-02
      0.00000000000000E+00   9.50175513107030E-11   0.00000000000000E+00   0.00000000000000E+00  -5.07045305774207E-10
      9.36156547491024E-34  -5.07045305774207E-10   5.79644248831621E-18   0.00000000000000E+00   0.00000000000000E+00
      0.00000000000000E+00   0.00000000000000E+00   0.00000000000000E+00   0.00000000000000E+00   0.00000000000000E+00
      2.46827962943827E-18   0.00000000000000E+00   0.00000000000000E+00   0.00000000000000E+00   0.00000000000000E+00
     -3.23482382522695E-19  -1.84912623269795E-33  -3.23482382522697E-19  -1.47903974627465E-17   6.74111495896532E-03
      6.74111486282139E-03   0.00000000000000E+00   0.00000000000000E+00   5.07045306097689E-10   9.12969685206930E-34
      5.07045306097689E-10   6.52567534499197E-18
      1.81777606666198E-02
      0.00000000000000E+00   1.06070638355601E-10   0.00000000000000E+00   0.00000000000000E+00  -5.66014653104596E-10
      8.85753798460081E-34  -5.66014653104596E-10   5.79547012043084E-18   0.00000000000000E+00   0.00000000000000E+00
      0.00000000000000E+00   0.00000000000000E+00   0.00000000000000E+00   0.00000000000000E+00   0.00000000000000E+00
      2.45407879648221E-18   0.00000000000000E+00   0.00000000000000E+00   0.00000000000000E+00   0.00000000000000E+00
      1.75877955349005E-18  -1.78897603381548E-33   1.75877955349005E-18  -1.47901833591312E-17   7.81643708664652E-03
      7.81643697931892E-03   0.00000000000000E+00   0.00000000000000E+00   5.66014651345816E-10   9.03222235355397E-34
      5.66014651345816E-10   6.54063444221809E-18
      2.09119130532821E-02
      0.00000000000000E+00   1.17096506294180E-10   0.00000000000000E+00   0.00000000000000E+00  -6.24836687896580E-10
      9.05585223228035E-34  -6.24836687896580E-10   5.79440708768255E-18   0.00000000000000E+00   0.00000000000000E+00
      0.00000000000000E+00   0.00000000000000E+00   0.00000000000000E+00   0.00000000000000E+00   0.00000000000000E+00
      2.43855500737269E-18   0.00000000000000E+00   0.00000000000000E+00   0.00000000000000E+00   0.00000000000000E+00
     -1.47764447967286E-18  -1.80387436092016E-33  -1.47764447967286E-18  -1.47899551444924E-17   8.99212261291131E-03
      8.99212249442769E-03   0.00000000000000E+00   0.00000000000000E+00   6.24836689374225E-10   8.98289137692127E-34
      6.24836689374225E-10   6.55699304943715E-18
      2.39012529960329E-02
      0.00000000000000E+00   1.27988419142765E-10   0.00000000000000E+00   0.00000000000000E+00  -6.82942614182204E-10
      8.82879829822698E-34  -6.82942614182204E-10   5.79324494339396E-18   0.00000000000000E+00   0.00000000000000E+00
      0.00000000000000E+00   0.00000000000000E+00   0.00000000000000E+00   0.00000000000000E+00   0.00000000000000E+00
      2.42158522104058E-18   0.00000000000000E+00   0.00000000000000E+00   0.00000000000000E+00   0.00000000000000E+00
      3.12549398007523E-18  -1.70306491362929E-33   3.12549398007522E-18  -1.47897125494078E-17   1.02775387882941E-02
      1.02775386587902E-02   0.00000000000000E+00   0.00000000000000E+00   6.82942611056710E-10   8.20185083806593E-34
      6.82942611056710E-10   6.57488238497329E-18
      2.71695980001071E-02
      0.00000000000000E+00   1.38632499530141E-10   0.00000000000000E+00   0.00000000000000E+00  -7.39726268669936E-10
      9.16350449969818E-34  -7.39726268669936E-10   5.79197445492239E-18   0.00000000000000E+00   0.00000000000000E+00
      0.00000000000000E+00   0.00000000000000E+00   0.00000000000000E+00   0.00000000000000E+00   0.00000000000000E+00
      2.40303498498996E-18   0.00000000000000E+00   0.00000000000000E+00   0.00000000000000E+00   0.00000000000000E+00
     -4.39922948521597E-18  -1.70717831751337E-33  -4.39922948521597E-18  -1.47894554556622E-17   1.16829271400460E-02
      1.16829269997726E-02   0.00000000000000E+00   0.00000000000000E+00   7.39726273069165E-10   7.90827867543550E-34
      7.39726273069165E-10   6.59444601574983E-18
      3.07429885378949E-02
      0.00000000000000E+00   1.48911255535458E-10   0.00000000000000E+00   0.00000000000000E+00  -7.94562637727686E-10
      8.99307585720141E-34  -7.94562637727686E-10   5.79058553058640E-18   0.00000000000000E+00   0.00000000000000E+00
      0.00000000000000E+00   0.00000000000000E+00   0.00000000000000E+00   0.00000000000000E+00   0.00000000000000E+00
      2.38275738044117E-18   0.00000000000000E+00   0.00000000000000E+00   0.00000000000000E+00   0.00000000000000E+00
     -5.30418660959655E-18  -1.63996332756996E-33  -5.30418660959655E-18  -1.47891839362368E-17   1.32194850712948E-02
      1.32194849206217E-02   0.00000000000000E+00   0.00000000000000E+00   7.94562643031873E-10   7.40655741849815E-34
      7.94562643031873E-10   6.61584102520923E-18
      3.46498955258762E-02
      0.00000000000000E+00   1.58707663186803E-10   0.00000000000000E+00   0.00000000000000E+00  -8.46829928819856E-10
      9.43077819236114E-34  -8.46829928819856E-10   5.78906713982588E-18   0.00000000000000E+00   0.00000000000000E+00
      0.00000000000000E+00   0.00000000000000E+00   0.00000000000000E+00   0.00000000000000E+00   0.00000000000000E+00
      2.36059187129575E-18   0.00000000000000E+00   0.00000000000000E+00   0.00000000000000E+00   0.00000000000000E+00
     -3.02440044164883E-18  -1.62280868281390E-33  -3.02440044164884E-18  -1.47888983036948E-17   1.48994550761267E-02
      1.48994549155424E-02   0.00000000000000E+00   0.00000000000000E+00   8.46829931844256E-10   6.79730863577782E-34
      8.46829931844256E-10   6.63923929257322E-18
      3.89214471660691E-02
      0.00000000000000E+00   1.67910737762959E-10   0.00000000000000E+00   0.00000000000000E+00  -8.95939305749337E-10
      9.10330787073440E-34  -8.95939305749337E-10   5.78740722588972E-18   0.00000000000000E+00   0.00000000000000E+00
      0.00000000000000E+00   0.00000000000000E+00   0.00000000000000E+00   0.00000000000000E+00   0.00000000000000E+00
      2.33636304599610E-18   0.00000000000000E+00   0.00000000000000E+00   0.00000000000000E+00   0.00000000000000E+00
     -3.02816121873671E-18  -1.55855350355628E-33  -3.02816121873672E-18  -1.47885991649836E-17   1.67362222814097E-02
      1.67362221115146E-02   0.00000000000000E+00   0.00000000000000E+00   8.95939308777498E-10   6.48222716482842E-34
      8.95939308777498E-10   6.66482889309770E-18
      4.35916769593466E-02
      0.00000000000000E+00   1.76422148910600E-10   0.00000000000000E+00   0.00000000000000E+00  -9.41370213697535E-10
      8.69799734629667E-34  -9.41370213697535E-10   5.78559261038005E-18   0.00000000000000E+00   0.00000000000000E+00
      0.00000000000000E+00   0.00000000000000E+00   0.00000000000000E+00   0.00000000000000E+00   0.00000000000000E+00
      2.30987924322623E-18   0.00000000000000E+00   0.00000000000000E+00   0.00000000000000E+00   0.00000000000000E+00
     -5.69902296052202E-19  -1.46682126881057E-33  -5.69902296052203E-19  -1.47882874847107E-17   1.87444210925190E-02
      1.87444209140135E-02   0.00000000000000E+00   0.00000000000000E+00   9.41370214267437E-10   5.97021534180900E-34
      9.41370214267437E-10   6.69281563110435E-18
      4.86977948666634E-02
      0.00000000000000E+00   1.84163585214545E-10   0.00000000000000E+00   0.00000000000000E+00  -9.82709748756900E-10
      8.95227786259096E-34  -9.82709748756900E-10   5.78360888888648E-18   0.00000000000000E+00   0.00000000000000E+00
      0.00000000000000E+00   0.00000000000000E+00   0.00000000000000E+00   0.00000000000000E+00   0.00000000000000E+00
      2.28093105086960E-18   0.00000000000000E+00   0.00000000000000E+00   0.00000000000000E+00   0.00000000000000E+00
     -1.46441258220511E-19  -1.43330419186104E-33  -1.46441258220513E-19  -1.47879646578255E-17   2.09400517926653E-02
      2.09400516063287E-02   0.00000000000000E+00   0.00000000000000E+00   9.82709748903342E-10   5.38076405601950E-34
      9.82709748903342E-10   6.72342471806938E-18
      5.42804837786631E-02
      0.00000000000000E+00   1.91084956851241E-10   0.00000000000000E+00   0.00000000000000E+00  -1.01969638729911E-09
      9.35571973310641E-34  -1.01969638729911E-09   5.78144031683369E-18   0.00000000000000E+00   0.00000000000000E+00
      0.00000000000000E+00   0.00000000000000E+00   0.00000000000000E+00   0.00000000000000E+00   0.00000000000000E+00
      2.24928966517040E-18   0.00000000000000E+00   0.00000000000000E+00   0.00000000000000E+00   0.00000000000000E+00
     -1.88448534236970E-19  -1.43827934561014E-33  -1.88448534236971E-19  -1.47876325909473E-17   2.33406080248251E-02
      2.33406078314881E-02   0.00000000000000E+00   0.00000000000000E+00   1.01969638748756E-09   5.02707372299493E-34
      1.01969638748756E-09   6.75690260894315E-18
      6.03842236557828E-02
      0.00000000000000E+00   1.97172455882895E-10   0.00000000000000E+00   0.00000000000000E+00  -1.05226296353197E-09
      8.47289309531644E-34  -1.05226296353197E-09   5.77906968467002E-18   0.00000000000000E+00   0.00000000000000E+00
      0.00000000000000E+00   0.00000000000000E+00   0.00000000000000E+00   0.00000000000000E+00   0.00000000000000E+00
      2.21470509838581E-18   0.00000000000000E+00   0.00000000000000E+00   0.00000000000000E+00   0.00000000000000E+00
     -8.06996586274430E-19  -1.31315959462081E-33  -8.06996586274431E-19  -1.47872937948094E-17   2.59652161719866E-02
      2.59652159724936E-02   0.00000000000000E+00   0.00000000000000E+00   1.05226296433897E-09   4.65870285089161E-34
      1.05226296433897E-09   6.79351901175355E-18
      6.70576459214336E-02
      0.00000000000000E+00   2.02455861587877E-10   0.00000000000000E+00   0.00000000000000E+00  -1.08057537296922E-09
      9.13766694772856E-34  -1.08057537296922E-09   5.77647818133566E-18   0.00000000000000E+00   0.00000000000000E+00
      0.00000000000000E+00   0.00000000000000E+00   0.00000000000000E+00   0.00000000000000E+00   0.00000000000000E+00
      2.17690421868838E-18   0.00000000000000E+00   0.00000000000000E+00   0.00000000000000E+00   0.00000000000000E+00
      3.20818324703064E-18  -1.33828498175797E-33   3.20818324703064E-18  -1.47869514854599E-17   2.88347877462165E-02
      2.88347875413824E-02   0.00000000000000E+00   0.00000000000000E+00   1.08057536976104E-09   4.24518286985111E-34
      1.08057536976104E-09   6.83356908543588E-18
      7.43539209318786E-02
      0.00000000000000E+00   2.07013311335589E-10   0.00000000000000E+00   0.00000000000000E+00  -1.10505771036155E-09
      8.97302753408924E-34  -1.10505771036155E-09   5.77364524493993E-18   0.00000000000000E+00   0.00000000000000E+00
      0.00000000000000E+00   0.00000000000000E+00   0.00000000000000E+00   0.00000000000000E+00   0.00000000000000E+00
      2.13558860804321E-18   0.00000000000000E+00   0.00000000000000E+00   0.00000000000000E+00   0.00000000000000E+00
      1.61442672312388E-18  -1.25078346220188E-33   1.61442672312388E-18  -1.47866096962572E-17   3.19721860007078E-02
      3.19721857912689E-02   0.00000000000000E+00   0.00000000000000E+00   1.10505770874712E-09   3.53480708792955E-34
      1.10505770874712E-09   6.87737584327408E-18
      8.23311816099650E-02
      0.00000000000000E+00   2.10972457830157E-10   0.00000000000000E+00   0.00000000000000E+00  -1.12639805635229E-09
      9.12116226965678E-34  -1.12639805635229E-09   5.77054839937661E-18   0.00000000000000E+00   0.00000000000000E+00
      0.00000000000000E+00   0.00000000000000E+00   0.00000000000000E+00   0.00000000000000E+00   0.00000000000000E+00
      2.09043221792715E-18   0.00000000000000E+00   0.00000000000000E+00   0.00000000000000E+00   0.00000000000000E+00
      3.32798169455960E-19  -1.23343466171412E-33   3.32798169455959E-19  -1.47862733964759E-17   3.54024080922850E-02
      3.54024078788491E-02   0.00000000000000E+00   0.00000000000000E+00   1.12639805601949E-09   3.21318434748445E-34
      1.12639805601949E-09   6.92529277917208E-18
      9.10529866180062E-02
      0.00000000000000E+00   2.14506065614505E-10   0.00000000000000E+00   0.00000000000000E+00  -1.14552455959464E-09
      9.09638707889570E-34  -1.14552455959464E-09   5.76716307584555E-18   0.00000000000000E+00   0.00000000000000E+00
      0.00000000000000E+00   0.00000000000000E+00   0.00000000000000E+00   0.00000000000000E+00   0.00000000000000E+00
      2.04107880968143E-18   0.00000000000000E+00   0.00000000000000E+00   0.00000000000000E+00   0.00000000000000E+00
     -7.41932486029416E-18  -1.18603505023189E-33  -7.41932486029416E-18  -1.47859486238944E-17   3.91527842457427E-02
      3.91527840287437E-02   0.00000000000000E+00   0.00000000000000E+00   1.14552456701396E-09   2.76396342342320E-34
      1.14552456701396E-09   6.97770673836739E-18
      1.00588826760131E-01
      0.00000000000000E+00   2.17820129116704E-10   0.00000000000000E+00   0.00000000000000E+00  -1.16354349154790E-09
      8.92916544844209E-34  -1.16354349154790E-09   5.76346241794233E-18   0.00000000000000E+00   0.00000000000000E+00
      0.00000000000000E+00   0.00000000000000E+00   0.00000000000000E+00   0.00000000000000E+00   0.00000000000000E+00
      1.98713915634749E-18   0.00000000000000E+00   0.00000000000000E+00   0.00000000000000E+00   0.00000000000000E+00
     -2.07418841265991E-17  -1.13275210513962E-33  -2.07418841265991E-17  -1.47856426256254E-17   4.32531955068564E-02
      4.32531952865206E-02   0.00000000000000E+00   0.00000000000000E+00   1.16354351228978E-09   2.39835560295407E-34
      1.16354351228978E-09   7.03504105133555E-18
      1.10588826760131E-01
      0.00000000000000E+00   2.20999106001747E-10   0.00000000000000E+00   0.00000000000000E+00  -1.18089502540832E-09
      9.30783246770178E-34  -1.18089502540832E-09   5.75958229071903E-18   0.00000000000000E+00   0.00000000000000E+00
      0.00000000000000E+00   0.00000000000000E+00   0.00000000000000E+00   0.00000000000000E+00   0.00000000000000E+00
      1.93059544248091E-18   0.00000000000000E+00   0.00000000000000E+00   0.00000000000000E+00   0.00000000000000E+00
     -3.02098001828281E-17  -1.12886587068617E-33  -3.02098001828281E-17  -1.47853742852654E-17   4.75531955068564E-02
      4.75531952833248E-02   0.00000000000000E+00   0.00000000000000E+00   1.18089505561812E-09   1.98082623915990E-34
      1.18089505561812E-09   7.09519655206552E-18
      1.20588826760131E-01
      0.00000000000000E+00   2.24074785110852E-10   0.00000000000000E+00   0.00000000000000E+00  -1.19772493738959E-09
      9.20257051143466E-34  -1.19772493738959E-09   5.75570279863320E-18   0.00000000000000E+00   0.00000000000000E+00
      0.00000000000000E+00   0.00000000000000E+00   0.00000000000000E+00   0.00000000000000E+00   0.00000000000000E+00
      1.87407266851656E-18   0.00000000000000E+00   0.00000000000000E+00   0.00000000000000E+00   0.00000000000000E+00
     -4.09348148869655E-17  -1.09031987856932E-33  -4.09348148869655E-17  -1.47851572063510E-17   5.18531955068564E-02
      5.18531952802368E-02   0.00000000000000E+00   0.00000000000000E+00   1.19772497832440E-09   1.70062827425859E-34
      1.19772497832440E-09   7.15538173920118E-18
      1.30588826760131E-01
      0.00000000000000E+00   2.27148036304330E-10   0.00000000000000E+00   0.00000000000000E+00  -1.21456179978584E-09
      8.76849733023184E-34  -1.21456179978584E-09   5.75182390460571E-18   0.00000000000000E+00   0.00000000000000E+00
      0.00000000000000E+00   0.00000000000000E+00   0.00000000000000E+00   0.00000000000000E+00   0.00000000000000E+00
      1.81756987529721E-18   0.00000000000000E+00   0.00000000000000E+00   0.00000000000000E+00   0.00000000000000E+00
     -5.21719331614538E-17  -1.02561275164065E-33  -5.21719331614538E-17  -1.47849889780874E-17   5.61531955068564E-02
      5.61531952771537E-02   0.00000000000000E+00   0.00000000000000E+00   1.21456185195777E-09   1.48763018617468E-34
      1.21456185195777E-09   7.21559519818450E-18
      1.40588826760131E-01
      0.00000000000000E+00   2.30260366055818E-10   0.00000000000000E+00   0.00000000000000E+00  -1.23162097301838E-09
      8.82576002529049E-34  -1.23162097301838E-09   5.74794557595105E-18   0.00000000000000E+00   0.00000000000000E+00
      0.00000000000000E+00   0.00000000000000E+00   0.00000000000000E+00   0.00000000000000E+00   0.00000000000000E+00
      1.76108619469399E-18   0.00000000000000E+00   0.00000000000000E+00   0.00000000000000E+00   0.00000000000000E+00
     -6.91367795728605E-17  -1.00859654096413E-33  -6.91367795728605E-17  -1.47848673502642E-17   6.04531955068564E-02
      6.04531952740339E-02   0.00000000000000E+00   0.00000000000000E+00   1.23162104215516E-09   1.26020538435079E-34
      1.23162104215516E-09   7.27583557961917E-18
      1.50588826760131E-01
      0.00000000000000E+00   2.33425530410832E-10   0.00000000000000E+00   0.00000000000000E+00  -1.24897523910404E-09
      8.64495704671012E-34  -1.24897523910404E-09   5.74406778359643E-18   0.00000000000000E+00   0.00000000000000E+00
      0.00000000000000E+00   0.00000000000000E+00   0.00000000000000E+00   0.00000000000000E+00   0.00000000000000E+00
      1.70462084237067E-18   0.00000000000000E+00   0.00000000000000E+00   0.00000000000000E+00   0.00000000000000E+00
     -6.44853351946961E-17  -9.68341582090009E-34  -6.44853351946961E-17  -1.47847902221898E-17   6.47531955068564E-02
      6.47531952708635E-02   0.00000000000000E+00   0.00000000000000E+00   1.24897530358937E-09   1.03845877418997E-34
      1.24897530358937E-09   7.33610159622263E-18
      1.60588826760131E-01
      0.00000000000000E+00   2.36645434229222E-10   0.00000000000000E+00   0.00000000000000E+00  -1.26663597199461E-09
      8.90513367964696E-34  -1.26663597199461E-09   5.74019050194468E-18   0.00000000000000E+00   0.00000000000000E+00
      0.00000000000000E+00   0.00000000000000E+00   0.00000000000000E+00   0.00000000000000E+00   0.00000000000000E+00
      1.64817311246164E-18   0.00000000000000E+00   0.00000000000000E+00   0.00000000000000E+00   0.00000000000000E+00
     -6.91221156395370E-17  -9.81000116609605E-34  -6.91221156395370E-17  -1.47847556349396E-17   6.90531955068564E-02
      6.90531952676409E-02   0.00000000000000E+00   0.00000000000000E+00   1.26663604111673E-09   9.04867486449095E-35
      1.26663604111673E-09   7.39639202053326E-18
      1.70588826760131E-01
      0.00000000000000E+00   2.39915643706299E-10   0.00000000000000E+00   0.00000000000000E+00  -1.28457942272915E-09
      8.81623145560882E-34  -1.28457942272915E-09   5.73631370882691E-18   0.00000000000000E+00   0.00000000000000E+00
      0.00000000000000E+00   0.00000000000000E+00   0.00000000000000E+00   0.00000000000000E+00   0.00000000000000E+00
      1.59174237235504E-18   0.00000000000000E+00   0.00000000000000E+00   0.00000000000000E+00   0.00000000000000E+00
     -6.46107304747432E-17  -9.56529341638570E-34  -6.46107304747432E-17  -1.47847617630788E-17   7.33531955068565E-02
      7.33531952643698E-02   0.00000000000000E+00   0.00000000000000E+00   1.28457948733988E-09   7.49061960776877E-35
      1.28457948733988E-09   7.45670568189690E-18
      1.80588826760131E-01
      0.00000000000000E+00   2.43228534351204E-10   0.00000000000000E+00   0.00000000000000E+00  -1.30276323261106E-09
      8.92596314628210E-34  -1.30276323261106E-09   5.73243738499454E-18   0.00000000000000E+00   0.00000000000000E+00
      0.00000000000000E+00   0.00000000000000E+00   0.00000000000000E+00   0.00000000000000E+00   0.00000000000000E+00
      1.53532805666038E-18   0.00000000000000E+00   0.00000000000000E+00   0.00000000000000E+00   0.00000000000000E+00
     -5.46681251938690E-17  -9.54905018533250E-34  -5.46681251938690E-17  -1.47848069045873E-17   7.76531955068565E-02
      7.76531952610562E-02   0.00000000000000E+00   0.00000000000000E+00   1.30276328727918E-09   6.23087039050399E-35
      1.30276328727918E-09   7.51704146293241E-18
      1.90588826760131E-01
      0.00000000000000E+00   2.46576357223458E-10   0.00000000000000E+00   0.00000000000000E+00  -1.32114501095630E-09