DF-ISE text

Info {
  version   = 1.0
  type      = xyplot
  datasets  = [
    "time"
    "source OuterVoltage" "source InnerVoltage" "source QuasiFermiPotential" "source DisplacementCurrent" "source eCurrent"
    "source hCurrent" "source TotalCurrent" "source Charge" "gate OuterVoltage" "gate InnerVoltage"
    "gate QuasiFermiPotential" "gate DisplacementCurrent" "gate eCurrent" "gate hCurrent" "gate TotalCurrent"
    "gate Charge" "substrate OuterVoltage" "substrate InnerVoltage" "substrate QuasiFermiPotential" "substrate DisplacementCurrent"
    "substrate eCurrent" "substrate hCurrent" "substrate TotalCurrent" "substrate Charge" "drain OuterVoltage"
    "drain InnerVoltage" "drain QuasiFermiPotential" "drain DisplacementCurrent" "drain eCurrent" "drain hCurrent"
    "drain TotalCurrent" "drain Charge" ]
  functions = [
    Time
    OuterVoltage InnerVoltage QuasiFermiPotential DisplacementCurrent eCurrent
    hCurrent TotalCurrent Charge OuterVoltage InnerVoltage
    QuasiFermiPotential DisplacementCurrent eCurrent hCurrent TotalCurrent
    Charge OuterVoltage InnerVoltage QuasiFermiPotential DisplacementCurrent
    eCurrent hCurrent TotalCurrent Charge OuterVoltage
    InnerVoltage QuasiFermiPotential DisplacementCurrent eCurrent hCurrent
    TotalCurrent Charge ]
}

Data {
      0.00000000000000E+00
      0.00000000000000E+00   0.00000000000000E+00   0.00000000000000E+00   0.00000000000000E+00  -5.92597136505865E-23
      3.00160471220505E-34  -5.92597136502864E-23   6.02351087630532E-18   0.00000000000000E+00   0.00000000000000E+00
      0.00000000000000E+00   0.00000000000000E+00   0.00000000000000E+00   0.00000000000000E+00   0.00000000000000E+00
      2.17020407675612E-18   0.00000000000000E+00   0.00000000000000E+00   0.00000000000000E+00   0.00000000000000E+00
      4.44973524671207E-20  -5.19186066792750E-34   4.44973524671202E-20  -1.41217514680493E-17   0.00000000000000E+00
      0.00000000000000E+00   0.00000000000000E+00   0.00000000000000E+00  -4.44380927534701E-20   2.19025595572246E-34
     -4.44380927534699E-20   5.92803651498786E-18
      0.00000000000000E+00
      0.00000000000000E+00   3.03260924741834E-18   0.00000000000000E+00   0.00000000000000E+00  -7.61957903897008E-19
      3.27018694382561E-34  -7.61957903897008E-19   6.01848317278887E-18   0.00000000000000E+00   0.00000000000000E+00
      0.00000000000000E+00   0.00000000000000E+00   0.00000000000000E+00   0.00000000000000E+00   0.00000000000000E+00
      2.16290037241724E-18   0.00000000000000E+00   0.00000000000000E+00   0.00000000000000E+00   0.00000000000000E+00
      2.71099540532139E-18  -5.58066853512922E-34   2.71099540532138E-18  -1.41049900499483E-17   0.00000000000000E+00
     -1.29968967746500E-18   0.00000000000000E+00   0.00000000000000E+00  -1.94903750142438E-18   2.31048159130361E-34
     -1.94903750142438E-18   5.92360650474218E-18
      1.00000000000000E-03
      0.00000000000000E+00   1.45496828211458E-11   0.00000000000000E+00   0.00000000000000E+00  -8.34134411405536E-11
      3.10485878996404E-34  -8.34134411405536E-11   6.01805638146296E-18   0.00000000000000E+00   0.00000000000000E+00
      0.00000000000000E+00   0.00000000000000E+00   0.00000000000000E+00   0.00000000000000E+00   0.00000000000000E+00
      2.15718708435330E-18   0.00000000000000E+00   0.00000000000000E+00   0.00000000000000E+00   0.00000000000000E+00
     -1.08112907030753E-20  -5.42242014164811E-34  -1.08112907030758E-20  -1.41047959409925E-17   4.30000000000000E-04
      4.29999985357156E-04   0.00000000000000E+00   0.00000000000000E+00   8.34134411513649E-11   2.31756135168406E-34
      8.34134411513649E-11   5.92955247517626E-18
      2.08666666666667E-03
      0.00000000000000E+00   2.98864711410911E-11   0.00000000000000E+00   0.00000000000000E+00  -1.71338022834790E-10
      3.34835780274178E-34  -1.71338022834790E-10   6.01759262744938E-18   0.00000000000000E+00   0.00000000000000E+00
      0.00000000000000E+00   0.00000000000000E+00   0.00000000000000E+00   0.00000000000000E+00   0.00000000000000E+00
      2.15097922392561E-18   0.00000000000000E+00   0.00000000000000E+00   0.00000000000000E+00   0.00000000000000E+00
      9.66979345502765E-17  -5.66980964573138E-34   9.66979345502765E-17  -1.41045865489283E-17   8.97266666666667E-04
      8.97266636589002E-04   0.00000000000000E+00   0.00000000000000E+00   1.71337926136855E-10   2.32145184298961E-34
      1.71337926136855E-10   5.93601469755331E-18
      3.28200000000000E-03
      0.00000000000000E+00   4.61770501609708E-11   0.00000000000000E+00   0.00000000000000E+00  -2.64728451027376E-10
      3.38391229923898E-34  -2.64728451027376E-10   6.01708252912644E-18   0.00000000000000E+00   0.00000000000000E+00
      0.00000000000000E+00   0.00000000000000E+00   0.00000000000000E+00   0.00000000000000E+00   0.00000000000000E+00
      2.14415126933916E-18   0.00000000000000E+00   0.00000000000000E+00   0.00000000000000E+00   0.00000000000000E+00
      1.40004186741497E-16  -5.64361571477720E-34   1.40004186741497E-16  -1.41043580597022E-17   1.41126000000000E-03
      1.41125995352778E-03   0.00000000000000E+00   0.00000000000000E+00   2.64728311023189E-10   2.25970341553822E-34
      2.64728311023189E-10   5.94312426123657E-18
      4.59686666666667E-03
      0.00000000000000E+00   6.34003969670219E-11   0.00000000000000E+00   0.00000000000000E+00  -3.63463388853986E-10
      3.11453344331808E-34  -3.63463388853986E-10   6.01652145841262E-18   0.00000000000000E+00   0.00000000000000E+00
      0.00000000000000E+00   0.00000000000000E+00   0.00000000000000E+00   0.00000000000000E+00   0.00000000000000E+00
      2.13664134999588E-18   0.00000000000000E+00   0.00000000000000E+00   0.00000000000000E+00   0.00000000000000E+00
      2.04638494320827E-16  -5.16398068283755E-34   2.04638494320827E-16  -1.41041089371612E-17   1.97665266666667E-03
      1.97665260286135E-03   0.00000000000000E+00   0.00000000000000E+00   3.63463184215492E-10   2.04944723951947E-34
      3.63463184215492E-10   5.95094612875270E-18
      6.04322000000000E-03
      0.00000000000000E+00   8.15200214718601E-11   0.00000000000000E+00   0.00000000000000E+00  -4.67332742208652E-10
      3.07194838587917E-34  -4.67332742208652E-10   6.01590432563856E-18   0.00000000000000E+00   0.00000000000000E+00
      0.00000000000000E+00   0.00000000000000E+00   0.00000000000000E+00   0.00000000000000E+00   0.00000000000000E+00
      2.12838143534958E-18   0.00000000000000E+00   0.00000000000000E+00   0.00000000000000E+00   0.00000000000000E+00
      3.00139179505929E-16  -5.15631982253426E-34   3.00139179505929E-16  -1.41038375657690E-17   2.59858460000000E-03
      2.59858451795981E-03   0.00000000000000E+00   0.00000000000000E+00   4.67332442069473E-10   2.08437143665509E-34
      4.67332442069473E-10   5.95955180478080E-18
      7.63420866666667E-03
      0.00000000000000E+00   1.00480316885865E-10   0.00000000000000E+00   0.00000000000000E+00  -5.76017102065110E-10
      3.35522040469720E-34  -5.76017102065110E-10   6.01522553362373E-18   0.00000000000000E+00   0.00000000000000E+00
      0.00000000000000E+00   0.00000000000000E+00   0.00000000000000E+00   0.00000000000000E+00   0.00000000000000E+00
      2.11929672401075E-18   0.00000000000000E+00   0.00000000000000E+00   0.00000000000000E+00   0.00000000000000E+00
      4.60789628657314E-16  -5.41909439906643E-34   4.60789628657314E-16  -1.41035422569876E-17   3.28270972666667E-03
      3.28270962554577E-03   0.00000000000000E+00   0.00000000000000E+00   5.76016641275481E-10   2.06387399436923E-34
      5.76016641275481E-10   5.96901999935318E-18
      9.38429620000000E-03
      0.00000000000000E+00   1.20203758885924E-10   0.00000000000000E+00   0.00000000000000E+00  -6.89071335917853E-10
      3.06022888666935E-34  -6.89071335917853E-10   6.01447892718668E-18   0.00000000000000E+00   0.00000000000000E+00
      0.00000000000000E+00   0.00000000000000E+00   0.00000000000000E+00   0.00000000000000E+00   0.00000000000000E+00
      2.10930497245019E-18   0.00000000000000E+00   0.00000000000000E+00   0.00000000000000E+00   0.00000000000000E+00
      6.42779872777589E-16  -5.27121008694356E-34   6.42779872777589E-16  -1.41032212586207E-17   4.03524736600000E-03
      4.03524724503064E-03   0.00000000000000E+00   0.00000000000000E+00   6.89070693137981E-10   2.21098120027422E-34
      6.89070693137981E-10   5.97943735898391E-18
      1.13093924866667E-02
      0.00000000000000E+00   1.40588330930186E-10   0.00000000000000E+00   0.00000000000000E+00  -8.05910120136527E-10
      2.99390253772417E-34  -8.05910120136527E-10   6.01365773766053E-18   0.00000000000000E+00   0.00000000000000E+00
      0.00000000000000E+00   0.00000000000000E+00   0.00000000000000E+00   0.00000000000000E+00   0.00000000000000E+00
      2.09831575782184E-18   0.00000000000000E+00   0.00000000000000E+00   0.00000000000000E+00   0.00000000000000E+00
      7.27434105766043E-16  -4.75504306293724E-34   7.27434105766043E-16  -1.41028727684614E-17   4.86303876926667E-03
      4.86303862778377E-03   0.00000000000000E+00   0.00000000000000E+00   8.05909392702421E-10   1.76114052521307E-34
      8.05909392702421E-10   5.99089927297903E-18
      1.34269984020000E-02
      0.00000000000000E+00   1.61505534866388E-10   0.00000000000000E+00   0.00000000000000E+00  -9.25796162177044E-10
      3.02241920014909E-34  -9.25796162177044E-10   6.01275452188977E-18   0.00000000000000E+00   0.00000000000000E+00
      0.00000000000000E+00   0.00000000000000E+00   0.00000000000000E+00   0.00000000000000E+00   0.00000000000000E+00
      2.08622966789761E-18   0.00000000000000E+00   0.00000000000000E+00   0.00000000000000E+00   0.00000000000000E+00
     -2.31755581482365E-19  -5.00594237038066E-34  -2.31755581482366E-19  -1.41024949523609E-17   5.77360931286000E-03
      5.77360915032797E-03   0.00000000000000E+00   0.00000000000000E+00   9.25796162408799E-10   1.98352317023157E-34
      9.25796162408799E-10   6.00351076257352E-18
      1.57422475360978E-02
      0.00000000000000E+00   1.82675826507023E-10   0.00000000000000E+00   0.00000000000000E+00  -1.04712838737901E-09
      3.31093771657979E-34  -1.04712838737901E-09   6.01176711561805E-18   0.00000000000000E+00   0.00000000000000E+00
      0.00000000000000E+00   0.00000000000000E+00   0.00000000000000E+00   0.00000000000000E+00   0.00000000000000E+00
      2.07301796298608E-18   0.00000000000000E+00   0.00000000000000E+00   0.00000000000000E+00   0.00000000000000E+00
      3.11923754969532E-19  -5.05028659194689E-34   3.11923754969532E-19  -1.41020884263548E-17   6.76916644052205E-03
      6.76916625668638E-03   0.00000000000000E+00   0.00000000000000E+00   1.04712838706708E-09   1.73934887536710E-34
      1.04712838706708E-09   6.01730334775069E-18
      1.82735865893780E-02
      0.00000000000000E+00   2.03926119679295E-10   0.00000000000000E+00   0.00000000000000E+00  -1.16891483630521E-09
      3.09188350471049E-34  -1.16891483630521E-09   6.01068768049135E-18   0.00000000000000E+00   0.00000000000000E+00
      0.00000000000000E+00   0.00000000000000E+00   0.00000000000000E+00   0.00000000000000E+00   0.00000000000000E+00
      2.05857601584595E-18   0.00000000000000E+00   0.00000000000000E+00   0.00000000000000E+00   0.00000000000000E+00
      6.04258468873292E-19  -4.79889238934507E-34   6.04258468873292E-19  -1.41016517025386E-17   7.85764223343255E-03
      7.85764202821309E-03   0.00000000000000E+00   0.00000000000000E+00   1.16891483570095E-09   1.70700888463458E-34
      1.16891483570095E-09   6.03238800620126E-18
      2.10411839542978E-02
      0.00000000000000E+00   2.25063466785986E-10   0.00000000000000E+00   0.00000000000000E+00  -1.29005128471295E-09
      3.15029043321003E-34  -1.29005128471295E-09   6.00950764974799E-18   0.00000000000000E+00   0.00000000000000E+00
      0.00000000000000E+00   0.00000000000000E+00   0.00000000000000E+00   0.00000000000000E+00   0.00000000000000E+00
      2.04278950569183E-18   0.00000000000000E+00   0.00000000000000E+00   0.00000000000000E+00   0.00000000000000E+00
      1.47993968927302E-19  -4.66668126759450E-34   1.47993968927302E-19  -1.41011833611141E-17   9.04770910034803E-03
      9.04770887385881E-03   0.00000000000000E+00   0.00000000000000E+00   1.29005128456495E-09   1.51639083438446E-34
      1.29005128456495E-09   6.04888620567429E-18
      2.40670904066100E-02
      0.00000000000000E+00   2.45878266439581E-10   0.00000000000000E+00   0.00000000000000E+00  -1.40933881413093E-09
      3.26470792933429E-34  -1.40933881413093E-09   6.00821766068891E-18   0.00000000000000E+00   0.00000000000000E+00
      0.00000000000000E+00   0.00000000000000E+00   0.00000000000000E+00   0.00000000000000E+00   0.00000000000000E+00
      2.02553352427639E-18   0.00000000000000E+00   0.00000000000000E+00   0.00000000000000E+00   0.00000000000000E+00
     -3.87245257202074E-20  -4.87654819442061E-34  -3.87245257202079E-20  -1.41006820903010E-17   1.03488488748423E-02
      1.03488486274083E-02   0.00000000000000E+00   0.00000000000000E+00   1.40933881416966E-09   1.61184026508632E-34
      1.40933881416966E-09   6.06693090533567E-18
      2.73754147944714E-02
      0.00000000000000E+00   2.66149415865380E-10   0.00000000000000E+00   0.00000000000000E+00  -1.52551336364011E-09
      3.32151162590141E-34  -1.52551336364011E-09   6.00680748086128E-18   0.00000000000000E+00   0.00000000000000E+00
      0.00000000000000E+00   0.00000000000000E+00   0.00000000000000E+00   0.00000000000000E+00   0.00000000000000E+00
      2.00667159913372E-18   0.00000000000000E+00   0.00000000000000E+00   0.00000000000000E+00   0.00000000000000E+00
      3.19107705857570E-19  -4.84878311919862E-34   3.19107705857569E-19  -1.41001467336668E-17   1.17714283616227E-02
      1.17714280937913E-02   0.00000000000000E+00   0.00000000000000E+00   1.52551336332100E-09   1.52727149329720E-34
      1.52551336332100E-09   6.08666765367186E-18
      3.09925161251998E-02
      0.00000000000000E+00   2.85650594034628E-10   0.00000000000000E+00   0.00000000000000E+00  -1.63728268463167E-09
      2.86554379602627E-34  -1.63728268463167E-09   6.00526592743686E-18   0.00000000000000E+00   0.00000000000000E+00
      0.00000000000000E+00   0.00000000000000E+00   0.00000000000000E+00   0.00000000000000E+00   0.00000000000000E+00
      1.98605462809371E-18   0.00000000000000E+00   0.00000000000000E+00   0.00000000000000E+00   0.00000000000000E+00
     -1.07274698443384E-19  -4.20789783642889E-34  -1.07274698443384E-19  -1.40995763485121E-17   1.33267819338359E-02
      1.33267816463826E-02   0.00000000000000E+00   0.00000000000000E+00   1.63728268473894E-09   1.34235404040262E-34
      1.63728268473894E-09   6.10825579298155E-18
      3.49472135801296E-02
      0.00000000000000E+00   3.04160463362021E-10   0.00000000000000E+00   0.00000000000000E+00  -1.74338413783687E-09
      3.16582873696675E-34  -1.74338413783687E-09   6.00358077896720E-18   0.00000000000000E+00   0.00000000000000E+00
      0.00000000000000E+00   0.00000000000000E+00   0.00000000000000E+00   0.00000000000000E+00   0.00000000000000E+00
      1.96351971226740E-18   0.00000000000000E+00   0.00000000000000E+00   0.00000000000000E+00   0.00000000000000E+00
      2.50511442377228E-19  -4.56970571215893E-34   2.50511442377228E-19  -1.40989702706625E-17   1.50273018394557E-02
      1.50273015333785E-02   0.00000000000000E+00   0.00000000000000E+00   1.74338413758636E-09   1.40387697519218E-34
      1.74338413758636E-09   6.13186977942786E-18
      3.92710161308528E-02
      0.00000000000000E+00   3.21472916892359E-10   0.00000000000000E+00   0.00000000000000E+00  -1.84264417680702E-09
      3.11209492768144E-34  -1.84264417680702E-09   6.00173867904049E-18   0.00000000000000E+00   0.00000000000000E+00
      0.00000000000000E+00   0.00000000000000E+00   0.00000000000000E+00   0.00000000000000E+00   0.00000000000000E+00
      1.93888888395622E-18   0.00000000000000E+00   0.00000000000000E+00   0.00000000000000E+00   0.00000000000000E+00
      1.45012719791799E-19  -4.52380393619417E-34   1.45012719791798E-19  -1.40983281946003E-17   1.68865369362667E-02
      1.68865366127711E-02   0.00000000000000E+00   0.00000000000000E+00   1.84264417666201E-09   1.41170900851274E-34
      1.84264417666201E-09   6.15770063160362E-18
      4.39983735863102E-02
      0.00000000000000E+00   3.37409875045105E-10   0.00000000000000E+00   0.00000000000000E+00  -1.93405149426677E-09
      3.05251423365489E-34  -1.93405149426677E-09   5.99972503096768E-18   0.00000000000000E+00   0.00000000000000E+00
      0.00000000000000E+00   0.00000000000000E+00   0.00000000000000E+00   0.00000000000000E+00   0.00000000000000E+00
      1.91196771683050E-18   0.00000000000000E+00   0.00000000000000E+00   0.00000000000000E+00   0.00000000000000E+00
     -2.09355641830146E-19  -4.21098344031141E-34  -2.09355641830147E-19  -1.40976502672235E-17   1.89193006421134E-02
      1.89193003025844E-02   0.00000000000000E+00   0.00000000000000E+00   1.93405149447612E-09   1.15846920665651E-34
      1.93405149447612E-09   6.18595751942533E-18
      4.91669510709436E-02
      0.00000000000000E+00   3.51836557834555E-10   0.00000000000000E+00   0.00000000000000E+00  -2.01684473540598E-09
      3.03428160280644E-34  -2.01684473540598E-09   5.99752388248271E-18   0.00000000000000E+00   0.00000000000000E+00
      0.00000000000000E+00   0.00000000000000E+00   0.00000000000000E+00   0.00000000000000E+00   0.00000000000000E+00
      1.88254380345475E-18   0.00000000000000E+00   0.00000000000000E+00   0.00000000000000E+00   0.00000000000000E+00
      2.86014726170456E-19  -4.14146100033216E-34   2.86014726170456E-19  -1.40969371912684E-17   2.11417889605057E-02
      2.11417886064639E-02   0.00000000000000E+00   0.00000000000000E+00   2.01684473511996E-09   1.10717939752572E-34
      2.01684473511996E-09   6.21686950533090E-18
      5.48179291208094E-02
      0.00000000000000E+00   3.64676940346256E-10   0.00000000000000E+00   0.00000000000000E+00  -2.09060093954496E-09
      3.25523471639161E-34  -2.09060093954496E-09   5.99511779973330E-18   0.00000000000000E+00   0.00000000000000E+00
      0.00000000000000E+00   0.00000000000000E+00   0.00000000000000E+00   0.00000000000000E+00   0.00000000000000E+00
      1.85038509246476E-18   0.00000000000000E+00   0.00000000000000E+00   0.00000000000000E+00   0.00000000000000E+00
     -2.92249565642424E-19  -4.18004884275702E-34  -2.92249565642424E-19  -1.40961903463926E-17   2.35717095219481E-02
      2.35717091549908E-02   0.00000000000000E+00   0.00000000000000E+00   2.09060093983721E-09   9.24814126365413E-35
      2.09060093983721E-09   6.25068745419449E-18
      6.09963317886627E-02
      0.00000000000000E+00   3.75928951741322E-10   0.00000000000000E+00   0.00000000000000E+00  -2.15532238992393E-09
      3.36854990489864E-34  -2.15532238992393E-09   5.99248772943301E-18   0.00000000000000E+00   0.00000000000000E+00
      0.00000000000000E+00   0.00000000000000E+00   0.00000000000000E+00   0.00000000000000E+00   0.00000000000000E+00
      1.81523806931075E-18   0.00000000000000E+00   0.00000000000000E+00   0.00000000000000E+00   0.00000000000000E+00
      3.82467074436329E-20  -4.25130458152675E-34   3.82467074436325E-20  -1.40954119257522E-17   2.62284226691250E-02
      2.62284222908522E-02   0.00000000000000E+00   0.00000000000000E+00   2.15532238988568E-09   8.82754676628112E-35
      2.15532238988568E-09   6.28768612700846E-18
      6.77513853721824E-02
      0.00000000000000E+00   3.85677724293006E-10   0.00000000000000E+00   0.00000000000000E+00  -2.21151235945863E-09
      3.05730771028044E-34  -2.21151235945863E-09   5.98961284794509E-18   0.00000000000000E+00   0.00000000000000E+00
      0.00000000000000E+00   0.00000000000000E+00   0.00000000000000E+00   0.00000000000000E+00   0.00000000000000E+00
      1.77682576273221E-18   0.00000000000000E+00   0.00000000000000E+00   0.00000000000000E+00   0.00000000000000E+00
     -4.88608610091316E-19  -3.85456313819201E-34  -4.88608610091317E-19  -1.40946050853131E-17   2.91330957100384E-02
      2.91330953219651E-02   0.00000000000000E+00   0.00000000000000E+00   2.21151235994724E-09   7.97255427911571E-35
      2.21151235994724E-09   6.32816647463577E-18
      7.51369106234972E-02
      0.00000000000000E+00   3.94103548787218E-10   0.00000000000000E+00   0.00000000000000E+00  -2.26021978716287E-09
      3.13021105943199E-34  -2.26021978716287E-09   5.98647039628783E-18   0.00000000000000E+00   0.00000000000000E+00
      0.00000000000000E+00   0.00000000000000E+00   0.00000000000000E+00   0.00000000000000E+00   0.00000000000000E+00
      1.73484556322410E-18   0.00000000000000E+00   0.00000000000000E+00   0.00000000000000E+00   0.00000000000000E+00
      3.35311263447273E-19  -3.84629245720229E-34   3.35311263447272E-19  -1.40937741111268E-17   3.23088715681038E-02
      3.23088711715644E-02   0.00000000000000E+00   0.00000000000000E+00   2.26021978682756E-09   7.16081397770291E-35
      2.26021978682756E-09   6.37245815161491E-18
      8.32117515649347E-02
      0.00000000000000E+00   4.01481778345484E-10   0.00000000000000E+00   0.00000000000000E+00  -2.30303795239517E-09
      3.30416693929453E-34  -2.30303795239517E-09   5.98303549969474E-18   0.00000000000000E+00   0.00000000000000E+00
      0.00000000000000E+00   0.00000000000000E+00   0.00000000000000E+00   0.00000000000000E+00   0.00000000000000E+00
      1.68896683315451E-18   0.00000000000000E+00   0.00000000000000E+00   0.00000000000000E+00   0.00000000000000E+00
      4.95473559734943E-19  -3.96375382561300E-34   4.95473559734943E-19  -1.40929246018378E-17   3.57810531729219E-02
      3.57810527689750E-02   0.00000000000000E+00   0.00000000000000E+00   2.30303795189970E-09   6.59586886318471E-35
      2.30303795189970E-09   6.42092226898854E-18
      9.20402443275731E-02
      0.00000000000000E+00   4.08169664301437E-10   0.00000000000000E+00   0.00000000000000E+00  -2.34202931343694E-09
      3.19542509189543E-34  -2.34202931343694E-09   5.97928097066846E-18   0.00000000000000E+00   0.00000000000000E+00
      0.00000000000000E+00   0.00000000000000E+00   0.00000000000000E+00   0.00000000000000E+00   0.00000000000000E+00
      1.63882829112510E-18   0.00000000000000E+00   0.00000000000000E+00   0.00000000000000E+00   0.00000000000000E+00
      6.68978273613560E-19  -3.75220312992053E-34   6.68978273613560E-19  -1.40920636700297E-17   3.95773050608564E-02
      3.95773046502027E-02   0.00000000000000E+00   0.00000000000000E+00   2.34202931276797E-09   5.56778038025094E-35
      2.34202931276797E-09   6.47395440823619E-18
      1.01692729748058E-01
      0.00000000000000E+00   4.14573466253840E-10   0.00000000000000E+00   0.00000000000000E+00  -2.37953576598167E-09
      3.07102500507290E-34  -2.37953576598167E-09   5.97517709434403E-18   0.00000000000000E+00   0.00000000000000E+00
      0.00000000000000E+00   0.00000000000000E+00   0.00000000000000E+00   0.00000000000000E+00   0.00000000000000E+00
      1.58403514876742E-18   0.00000000000000E+00   0.00000000000000E+00   0.00000000000000E+00   0.00000000000000E+00
      1.58392059728471E-19  -3.49352708306757E-34   1.58392059728471E-19  -1.40912001611222E-17   4.37278737916648E-02
      4.37278733745981E-02   0.00000000000000E+00   0.00000000000000E+00   2.37953576582327E-09   4.22502077994670E-35
      2.37953576582327E-09   6.53198791801064E-18
      1.11692729748058E-01
      0.00000000000000E+00   4.20758866186692E-10   0.00000000000000E+00   0.00000000000000E+00  -2.41589007157156E-09
      2.95903965030026E-34  -2.41589007157156E-09   5.97092657969401E-18   0.00000000000000E+00   0.00000000000000E+00
      0.00000000000000E+00   0.00000000000000E+00   0.00000000000000E+00   0.00000000000000E+00   0.00000000000000E+00
      1.52729514989541E-18   0.00000000000000E+00   0.00000000000000E+00   0.00000000000000E+00   0.00000000000000E+00
     -1.14820632538730E-18  -3.37588777462577E-34  -1.14820632538730E-18  -1.40903875085350E-17   4.80278737916648E-02
      4.80278733684124E-02   0.00000000000000E+00   0.00000000000000E+00   2.41589007271976E-09   4.16848124325511E-35
      2.41589007271976E-09   6.59216577894559E-18
      1.21692729748058E-01
      0.00000000000000E+00   4.26815712947086E-10   0.00000000000000E+00   0.00000000000000E+00  -2.45155970931247E-09
      2.92419318415980E-34  -2.45155970931247E-09   5.96667712904893E-18   0.00000000000000E+00   0.00000000000000E+00
      0.00000000000000E+00   0.00000000000000E+00   0.00000000000000E+00   0.00000000000000E+00   0.00000000000000E+00
      1.47057979118305E-18   0.00000000000000E+00   0.00000000000000E+00   0.00000000000000E+00   0.00000000000000E+00
     -2.94646361634258E-18  -3.28727237619567E-34  -2.94646361634258E-18  -1.40896545305175E-17   5.23278737916648E-02
      5.23278733623624E-02   0.00000000000000E+00   0.00000000000000E+00   2.45155971225893E-09   3.63079192035869E-35
      2.45155971225893E-09   6.65239761028556E-18
      1.31692729748058E-01
      0.00000000000000E+00   4.32912087602871E-10   0.00000000000000E+00   0.00000000000000E+00  -2.48749704095331E-09
      3.29350843006457E-34  -2.48749704095331E-09   5.96242868278142E-18   0.00000000000000E+00   0.00000000000000E+00
      0.00000000000000E+00   0.00000000000000E+00   0.00000000000000E+00   0.00000000000000E+00   0.00000000000000E+00
      1.41388755117588E-18   0.00000000000000E+00   0.00000000000000E+00   0.00000000000000E+00   0.00000000000000E+00
     -1.11986803350746E-17  -3.59618261360702E-34  -1.11986803350746E-17  -1.40889977165790E-17   5.66278737916648E-02
      5.66278733562784E-02   0.00000000000000E+00   0.00000000000000E+00   2.48749705215199E-09   3.02674183542448E-35
      2.48749705215199E-09   6.71268148262166E-18
      1.41692729748058E-01
      0.00000000000000E+00   4.39122894735998E-10   0.00000000000000E+00   0.00000000000000E+00  -2.52412863931336E-09
      2.97004444402381E-34  -2.52412863931336E-09   5.95818118952045E-18   0.00000000000000E+00   0.00000000000000E+00
      0.00000000000000E+00   0.00000000000000E+00   0.00000000000000E+00   0.00000000000000E+00   0.00000000000000E+00
      1.35721706385187E-18   0.00000000000000E+00   0.00000000000000E+00   0.00000000000000E+00   0.00000000000000E+00
     -1.08720980154861E-17  -3.23207322222871E-34  -1.08720980154861E-17  -1.40884138083765E-17   6.09278737916648E-02
      6.09278733500862E-02   0.00000000000000E+00   0.00000000000000E+00   2.52412865018545E-09   2.62028778204907E-35
      2.52412865018545E-09   6.77301555500414E-18
      1.51692729748058E-01
      0.00000000000000E+00   4.45467466363960E-10   0.00000000000000E+00   0.00000000000000E+00  -2.56156363603782E-09
      2.94294451232312E-34  -2.56156363603782E-09   5.95393460610438E-18   0.00000000000000E+00   0.00000000000000E+00
      0.00000000000000E+00   0.00000000000000E+00   0.00000000000000E+00   0.00000000000000E+00   0.00000000000000E+00
      1.30056711258032E-18   0.00000000000000E+00   0.00000000000000E+00   0.00000000000000E+00   0.00000000000000E+00
     -4.96311871519405E-19  -3.16593822473840E-34  -4.96311871519405E-19  -1.40878997910424E-17   6.52278737916648E-02
      6.52278733437670E-02   0.00000000000000E+00   0.00000000000000E+00   2.56156363653413E-09   2.22993712415280E-35
      2.56156363653413E-09   6.83339807235770E-18
      1.61692729748058E-01
      0.00000000000000E+00   4.51932451641159E-10   0.00000000000000E+00   0.00000000000000E+00  -2.59972166708057E-09
      3.22079806546490E-34  -2.59972166708057E-09   5.94968889641001E-18   0.00000000000000E+00   0.00000000000000E+00
      0.00000000000000E+00   0.00000000000000E+00   0.00000000000000E+00   0.00000000000000E+00   0.00000000000000E+00
      1.24393659907001E-18   0.00000000000000E+00   0.00000000000000E+00   0.00000000000000E+00   0.00000000000000E+00
     -7.28771664691134E-18  -3.40971569504159E-34  -7.28771664691134E-18  -1.40874528524464E-17   6.95278737916648E-02
      6.95278733373296E-02   0.00000000000000E+00   0.00000000000000E+00   2.59972167436829E-09   1.88917629576690E-35
      2.59972167436829E-09   6.89382735696639E-18
      1.71692729748058E-01
      0.00000000000000E+00   4.58494453554022E-10   0.00000000000000E+00   0.00000000000000E+00  -2.63846216782051E-09
      3.19876385214240E-34  -2.63846216782051E-09   5.94544402920601E-18   0.00000000000000E+00   0.00000000000000E+00
      0.00000000000000E+00   0.00000000000000E+00   0.00000000000000E+00   0.00000000000000E+00   0.00000000000000E+00
      1.18732454755451E-18   0.00000000000000E+00   0.00000000000000E+00   0.00000000000000E+00   0.00000000000000E+00
     -4.18543028531265E-18  -3.36469407119212E-34  -4.18543028531265E-18  -1.40870703849795E-17   7.38278737916648E-02
      7.38278733307964E-02   0.00000000000000E+00   0.00000000000000E+00   2.63846217200594E-09   1.65930219049725E-35
      2.63846217200594E-09   6.95430180821897E-18
      1.81692729748058E-01
      0.00000000000000E+00   4.65133047046039E-10   0.00000000000000E+00   0.00000000000000E+00  -2.67766706616580E-09
      3.34161877713485E-34  -2.67766706616580E-09   5.94119997599588E-18   0.00000000000000E+00   0.00000000000000E+00
      0.00000000000000E+00   0.00000000000000E+00   0.00000000000000E+00   0.00000000000000E+00   0.00000000000000E+00
      1.13073007820336E-18   0.00000000000000E+00   0.00000000000000E+00   0.00000000000000E+00   0.00000000000000E+00
     -5.29259443165846E-18  -3.47625228770237E-34  -5.29259443165846E-18  -1.40867499507155E-17   7.81278737916648E-02
      7.81278733241868E-02   0.00000000000000E+00   0.00000000000000E+00   2.67766707145840E-09   1.34633510567510E-35
      2.67766707145840E-09   7.01481989651628E-18
      1.91692729748058E-01
      0.00000000000000E+00   4.71836736795240E-10   0.00000000000000E+00   0.00000000000000E+00  -2.71727208084421E-09