DF-ISE text

Info {
  version   = 1.0
  type      = xyplot
  datasets  = [
    "time"
    "source OuterVoltage" "source InnerVoltage" "source QuasiFermiPotential" "source DisplacementCurrent" "source eCurrent"
    "source hCurrent" "source TotalCurrent" "source Charge" "gate OuterVoltage" "gate InnerVoltage"
    "gate QuasiFermiPotential" "gate DisplacementCurrent" "gate eCurrent" "gate hCurrent" "gate TotalCurrent"
    "gate Charge" "substrate OuterVoltage" "substrate InnerVoltage" "substrate QuasiFermiPotential" "substrate DisplacementCurrent"
    "substrate eCurrent" "substrate hCurrent" "substrate TotalCurrent" "substrate Charge" "drain OuterVoltage"
    "drain InnerVoltage" "drain QuasiFermiPotential" "drain DisplacementCurrent" "drain eCurrent" "drain hCurrent"
    "drain TotalCurrent" "drain Charge" ]
  functions = [
    Time
    OuterVoltage InnerVoltage QuasiFermiPotential DisplacementCurrent eCurrent
    hCurrent TotalCurrent Charge OuterVoltage InnerVoltage
    QuasiFermiPotential DisplacementCurrent eCurrent hCurrent TotalCurrent
    Charge OuterVoltage InnerVoltage QuasiFermiPotential DisplacementCurrent
    eCurrent hCurrent TotalCurrent Charge OuterVoltage
    InnerVoltage QuasiFermiPotential DisplacementCurrent eCurrent hCurrent
    TotalCurrent Charge ]
}

Data {
      0.00000000000000E+00
      0.00000000000000E+00   0.00000000000000E+00   0.00000000000000E+00   0.00000000000000E+00  -3.95753845916991E-22
      6.35776609605972E-34  -3.95753845916355E-22   5.79749642034240E-18   0.00000000000000E+00   0.00000000000000E+00
      0.00000000000000E+00   0.00000000000000E+00   0.00000000000000E+00   0.00000000000000E+00   0.00000000000000E+00
      3.04164888709464E-18   0.00000000000000E+00   0.00000000000000E+00   0.00000000000000E+00   0.00000000000000E+00
     -1.01243066018761E-20  -1.33696641724350E-33  -1.01243066018774E-20  -1.45599349427286E-17   0.00000000000000E+00
      0.00000000000000E+00   0.00000000000000E+00   0.00000000000000E+00   1.05200604477931E-20   7.01189807637533E-34
      1.05200604477938E-20   5.72078963529153E-18
      0.00000000000000E+00
      0.00000000000000E+00   0.00000000000000E+00   0.00000000000000E+00   0.00000000000000E+00  -1.29253032776423E-19
      6.07225089990976E-34  -1.29253032776423E-19   5.79739141083896E-18   0.00000000000000E+00   0.00000000000000E+00
      0.00000000000000E+00   0.00000000000000E+00   0.00000000000000E+00   0.00000000000000E+00   0.00000000000000E+00
      3.04147250800663E-18   0.00000000000000E+00   0.00000000000000E+00   0.00000000000000E+00   0.00000000000000E+00
      6.50182436840820E-15  -1.31165609894555E-33   6.50182436840820E-15  -1.45595315423916E-17   0.00000000000000E+00
      0.00000000000000E+00   0.00000000000000E+00   0.00000000000000E+00  -6.50169511537543E-15   7.04431008954574E-34
     -6.50169511537543E-15   5.72066762354603E-18
      1.00000000000000E-03
      0.00000000000000E+00   7.71748690274162E-12   0.00000000000000E+00   0.00000000000000E+00  -4.11144123329790E-11
      6.27729129392511E-34  -4.11144123329790E-11   5.79708363675491E-18   0.00000000000000E+00   0.00000000000000E+00
      0.00000000000000E+00   0.00000000000000E+00   0.00000000000000E+00   0.00000000000000E+00   0.00000000000000E+00
      3.03576974466650E-18   0.00000000000000E+00   0.00000000000000E+00   0.00000000000000E+00   0.00000000000000E+00
      9.65443074460028E-19  -1.32448445521076E-33   9.65443074460027E-19  -1.45594630418286E-17   4.30000000000000E-04
      4.29999992186916E-04   0.00000000000000E+00   0.00000000000000E+00   4.11144113675360E-11   6.96755325818247E-34
      4.11144113675360E-11   5.72660966040732E-18
      2.08666666666667E-03
      0.00000000000000E+00   1.58633075087690E-11   0.00000000000000E+00   0.00000000000000E+00  -8.45103811146543E-11
      6.09361539674719E-34  -8.45103811146543E-11   5.79674920824123E-18   0.00000000000000E+00   0.00000000000000E+00
      0.00000000000000E+00   0.00000000000000E+00   0.00000000000000E+00   0.00000000000000E+00   0.00000000000000E+00
      3.02957345923699E-18   0.00000000000000E+00   0.00000000000000E+00   0.00000000000000E+00   0.00000000000000E+00
     -8.13614101438583E-19  -1.30410973028329E-33  -8.13614101438585E-19  -1.45593896123402E-17   8.97266666666667E-04
      8.97266650606811E-04   0.00000000000000E+00   0.00000000000000E+00   8.45103819282683E-11   6.94748190608572E-34
      8.45103819282683E-11   5.73306694486202E-18
      3.27475555555556E-03
      0.00000000000000E+00   2.44784500833038E-11   0.00000000000000E+00   0.00000000000000E+00  -1.30405497486960E-10
      5.82640181054529E-34  -1.30405497486960E-10   5.79638358940385E-18   0.00000000000000E+00   0.00000000000000E+00
      0.00000000000000E+00   0.00000000000000E+00   0.00000000000000E+00   0.00000000000000E+00   0.00000000000000E+00
      3.02279970644686E-18   0.00000000000000E+00   0.00000000000000E+00   0.00000000000000E+00   0.00000000000000E+00
      8.87522184481531E-19  -1.27628128367295E-33   8.87522184481529E-19  -1.45593105241982E-17   1.40814488888889E-03
      1.40814486410715E-03   0.00000000000000E+00   0.00000000000000E+00   1.30405496599438E-10   6.93641102618423E-34
      1.30405496599438E-10   5.74012722834749E-18
      4.57373274074074E-03
      0.00000000000000E+00   3.35523919098634E-11   0.00000000000000E+00   0.00000000000000E+00  -1.78743515471791E-10
      6.52991715347690E-34  -1.78743515471791E-10   5.79598387355480E-18   0.00000000000000E+00   0.00000000000000E+00
      0.00000000000000E+00   0.00000000000000E+00   0.00000000000000E+00   0.00000000000000E+00   0.00000000000000E+00
      3.01539475277111E-18   0.00000000000000E+00   0.00000000000000E+00   0.00000000000000E+00   0.00000000000000E+00
      1.70648023242868E-19  -1.34632387838031E-33   1.70648023242866E-19  -1.45592254744075E-17   1.96670507851852E-03
      1.96670504455040E-03   0.00000000000000E+00   0.00000000000000E+00   1.78743515301142E-10   6.93332163032626E-34
      1.78743515301142E-10   5.74784684808156E-18
      5.99394779654321E-03
      0.00000000000000E+00   4.30679413235469E-11   0.00000000000000E+00   0.00000000000000E+00  -2.29432498080880E-10
      6.27476679023751E-34  -2.29432498080880E-10   5.79554688352581E-18   0.00000000000000E+00   0.00000000000000E+00
      0.00000000000000E+00   0.00000000000000E+00   0.00000000000000E+00   0.00000000000000E+00   0.00000000000000E+00
      3.00729988057839E-18   0.00000000000000E+00   0.00000000000000E+00   0.00000000000000E+00   0.00000000000000E+00
      6.85810548967644E-19  -1.29176092293830E-33   6.85810548967642E-19  -1.45591341732374E-17   2.57739755251358E-03
      2.57739750891197E-03   0.00000000000000E+00   0.00000000000000E+00   2.29432497395069E-10   6.64284243914551E-34
      2.29432497395069E-10   5.75628740913318E-18
      7.54671625755391E-03
      0.00000000000000E+00   5.29996540851115E-11   0.00000000000000E+00   0.00000000000000E+00  -2.82336587492243E-10
      6.49086345213687E-34  -2.82336587492243E-10   5.79506914657373E-18   0.00000000000000E+00   0.00000000000000E+00
      0.00000000000000E+00   0.00000000000000E+00   0.00000000000000E+00   0.00000000000000E+00   0.00000000000000E+00
      2.99845092875341E-18   0.00000000000000E+00   0.00000000000000E+00   0.00000000000000E+00   0.00000000000000E+00
     -5.28836427557250E-19  -1.29980344963519E-33  -5.28836427557252E-19  -1.45590363528628E-17   3.24508799074818E-03
      3.24508793709172E-03   0.00000000000000E+00   0.00000000000000E+00   2.82336588021080E-10   6.50717104421508E-34
      2.82336588021080E-10   5.76551627753569E-18
      9.24440977492561E-03
      0.00000000000000E+00   6.33125804888760E-11   0.00000000000000E+00   0.00000000000000E+00  -3.37269348560563E-10
      5.87099509598753E-34  -3.37269348560563E-10   5.79454686696660E-18   0.00000000000000E+00   0.00000000000000E+00
      0.00000000000000E+00   0.00000000000000E+00   0.00000000000000E+00   0.00000000000000E+00   0.00000000000000E+00
      2.98877779150405E-18   0.00000000000000E+00   0.00000000000000E+00   0.00000000000000E+00   0.00000000000000E+00
      1.20305469879427E-18  -1.21272817157062E-33   1.20305469879427E-18  -1.45589317780477E-17   3.97509620321801E-03
      3.97509613912071E-03   0.00000000000000E+00   0.00000000000000E+00   3.37269347357508E-10   6.25628661971865E-34
      3.37269347357508E-10   5.77560711957697E-18
      1.11005546872520E-02
      0.00000000000000E+00   7.39612295581841E-11   0.00000000000000E+00   0.00000000000000E+00  -3.93988064517299E-10
      6.55138477221257E-34  -3.93988064517299E-10   5.79397589603930E-18   0.00000000000000E+00   0.00000000000000E+00
      0.00000000000000E+00   0.00000000000000E+00   0.00000000000000E+00   0.00000000000000E+00   0.00000000000000E+00
      2.97820387164778E-18   0.00000000000000E+00   0.00000000000000E+00   0.00000000000000E+00   0.00000000000000E+00
     -1.56680954734814E-18  -1.26232016925250E-33  -1.56680954734815E-18  -1.45588202592592E-17   4.77323851551836E-03
      4.77323844064028E-03   0.00000000000000E+00   0.00000000000000E+00   3.93988066084109E-10   6.07181692031242E-34
      3.93988066084109E-10   5.78664049157211E-18
      1.31299397913955E-02
      0.00000000000000E+00   8.48886334351270E-11   0.00000000000000E+00   0.00000000000000E+00  -4.52189152899343E-10
      6.46715215377004E-34  -4.52189152899343E-10   5.79335169948730E-18   0.00000000000000E+00   0.00000000000000E+00
      0.00000000000000E+00   0.00000000000000E+00   0.00000000000000E+00   0.00000000000000E+00   0.00000000000000E+00
      2.96664548432610E-18   0.00000000000000E+00   0.00000000000000E+00   0.00000000000000E+00   0.00000000000000E+00
     -6.29877206316704E-20  -1.22785435690338E-33  -6.29877206316717E-20  -1.45587016686012E-17   5.64587411030008E-03
      5.64587402435892E-03   0.00000000000000E+00   0.00000000000000E+00   4.52189152962330E-10   5.81139141526374E-34
      4.52189152962330E-10   5.79870448478787E-18
      1.53487341719258E-02
      0.00000000000000E+00   9.60258051255043E-11   0.00000000000000E+00   0.00000000000000E+00  -5.11505055058925E-10
      6.23716402543240E-34  -5.11505055058925E-10   5.79266932164555E-18   0.00000000000000E+00   0.00000000000000E+00
      0.00000000000000E+00   0.00000000000000E+00   0.00000000000000E+00   0.00000000000000E+00   0.00000000000000E+00
      2.95401120682174E-18   0.00000000000000E+00   0.00000000000000E+00   0.00000000000000E+00   0.00000000000000E+00
      1.14317527235106E-18  -1.16864473922006E-33   1.14317527235105E-18  -1.45585759591351E-17   6.59995569392808E-03
      6.59995559671136E-03   0.00000000000000E+00   0.00000000000000E+00   5.11505053915750E-10   5.44928336676820E-34
      5.11505053915750E-10   5.81189543066777E-18
      1.77746160279722E-02
      0.00000000000000E+00   1.07291519091951E-10   0.00000000000000E+00   0.00000000000000E+00  -5.71503185688835E-10
      6.61548095172909E-34  -5.71503185688835E-10   5.79192334647697E-18   0.00000000000000E+00   0.00000000000000E+00
      0.00000000000000E+00   0.00000000000000E+00   0.00000000000000E+00   0.00000000000000E+00   0.00000000000000E+00
      2.94020116971447E-18   0.00000000000000E+00   0.00000000000000E+00   0.00000000000000E+00   0.00000000000000E+00
      1.00485098907397E-18  -1.20707663682405E-33   1.00485098907397E-18  -1.45584431880757E-17   7.64308489202804E-03
      7.64308478340549E-03   0.00000000000000E+00   0.00000000000000E+00   5.71503184683984E-10   5.45528541651138E-34
      5.71503184683984E-10   5.82631867188419E-18
      2.04269135239163E-02
      0.00000000000000E+00   1.18592622505548E-10   0.00000000000000E+00   0.00000000000000E+00  -6.31687590632901E-10
      6.24431361726458E-34  -6.31687590632901E-10   5.79110785496888E-18   0.00000000000000E+00   0.00000000000000E+00
      0.00000000000000E+00   0.00000000000000E+00   0.00000000000000E+00   0.00000000000000E+00   0.00000000000000E+00
      2.92510628426224E-18   0.00000000000000E+00   0.00000000000000E+00   0.00000000000000E+00   0.00000000000000E+00
     -8.48872365642436E-19  -1.15443993437204E-33  -8.48872365642437E-19  -1.45583035445048E-17   8.78357281528399E-03
      8.78357269521965E-03   0.00000000000000E+00   0.00000000000000E+00   6.31687591481774E-10   5.30008572645577E-34
      6.31687591481774E-10   5.84208940527372E-18
      2.33267587861485E-02
      0.00000000000000E+00   1.29824946271397E-10   0.00000000000000E+00   0.00000000000000E+00  -6.91503990901076E-10
      5.91616124936254E-34  -6.91503990901076E-10   5.79021637860981E-18   0.00000000000000E+00   0.00000000000000E+00
      0.00000000000000E+00   0.00000000000000E+00   0.00000000000000E+00   0.00000000000000E+00   0.00000000000000E+00
      2.90860740050097E-18   0.00000000000000E+00   0.00000000000000E+00   0.00000000000000E+00   0.00000000000000E+00
      5.74262918266812E-19  -1.08798434079461E-33   5.74262918266811E-19  -1.45581573823460E-17   1.00305062780438E-02
      1.00305061466072E-02   0.00000000000000E+00   0.00000000000000E+00   6.91503990326813E-10   4.96368215858352E-34
      6.91503990326813E-10   5.85933360323522E-18
      2.64972562728556E-02
      0.00000000000000E+00   1.40875057500423E-10   0.00000000000000E+00   0.00000000000000E+00  -7.50349093960623E-10
      6.24995894318977E-34  -7.50349093960623E-10   5.78924184858714E-18   0.00000000000000E+00   0.00000000000000E+00
      0.00000000000000E+00   0.00000000000000E+00   0.00000000000000E+00   0.00000000000000E+00   0.00000000000000E+00
      2.89057439001308E-18   0.00000000000000E+00   0.00000000000000E+00   0.00000000000000E+00   0.00000000000000E+00
      1.36633346109596E-18  -1.08658004406979E-33   1.36633346109596E-18  -1.45580052592707E-17   1.13938201973279E-02
      1.13938200547032E-02   0.00000000000000E+00   0.00000000000000E+00   7.50349092594290E-10   4.61584149750809E-34
      7.50349092594290E-10   5.87818902067047E-18
      2.99636668583222E-02
      0.00000000000000E+00   1.51622874301213E-10   0.00000000000000E+00   0.00000000000000E+00  -8.07584728592291E-10
      6.35711572946712E-34  -8.07584728592291E-10   5.78817654031580E-18   0.00000000000000E+00   0.00000000000000E+00
      0.00000000000000E+00   0.00000000000000E+00   0.00000000000000E+00   0.00000000000000E+00   0.00000000000000E+00
      2.87086514699775E-18   0.00000000000000E+00   0.00000000000000E+00   0.00000000000000E+00   0.00000000000000E+00
     -6.78580773212623E-19  -1.06640256341429E-33  -6.78580773212624E-19  -1.45578479825051E-17   1.28843767490785E-02
      1.28843765955716E-02   0.00000000000000E+00   0.00000000000000E+00   8.07584729270872E-10   4.30690990467574E-34
      8.07584729270872E-10   5.89880629519158E-18
      3.37536090984323E-02
      0.00000000000000E+00   1.61945404974088E-10   0.00000000000000E+00   0.00000000000000E+00  -8.62557628883076E-10
      6.21475492500071E-34  -8.62557628883076E-10   5.78701201286902E-18   0.00000000000000E+00   0.00000000000000E+00
      0.00000000000000E+00   0.00000000000000E+00   0.00000000000000E+00   0.00000000000000E+00   0.00000000000000E+00
      2.84932450061000E-18   0.00000000000000E+00   0.00000000000000E+00   0.00000000000000E+00   0.00000000000000E+00
      5.81881666355210E-21  -1.04293288724582E-33   5.81881666355106E-21  -1.45576866623400E-17   1.45140519123259E-02
      1.45140517483671E-02   0.00000000000000E+00   0.00000000000000E+00   8.62557628877258E-10   4.21457394745753E-34
      8.62557628877258E-10   5.92135014886102E-18
      3.78972792809526E-02
      0.00000000000000E+00   1.71721545738968E-10   0.00000000000000E+00   0.00000000000000E+00  -9.14625175487106E-10
      5.86775168688220E-34  -9.14625175487106E-10   5.78573904285018E-18   0.00000000000000E+00   0.00000000000000E+00
      0.00000000000000E+00   0.00000000000000E+00   0.00000000000000E+00   0.00000000000000E+00   0.00000000000000E+00
      2.82578303114064E-18   0.00000000000000E+00   0.00000000000000E+00   0.00000000000000E+00   0.00000000000000E+00
      1.63446980014097E-18  -9.74488170090354E-34   1.63446980014096E-18  -1.45575227743973E-17   1.62958300908096E-02
      1.62958299169519E-02   0.00000000000000E+00   0.00000000000000E+00   9.14625173852637E-10   3.87713001402135E-34
      9.14625173852637E-10   5.94600070040645E-18
      4.24276920138415E-02
      0.00000000000000E+00   1.80838004257058E-10   0.00000000000000E+00   0.00000000000000E+00  -9.63187182213575E-10
      6.02285506240633E-34  -9.63187182213575E-10   5.78434755219738E-18   0.00000000000000E+00   0.00000000000000E+00
      0.00000000000000E+00   0.00000000000000E+00   0.00000000000000E+00   0.00000000000000E+00   0.00000000000000E+00
      2.80005578208297E-18   0.00000000000000E+00   0.00000000000000E+00   0.00000000000000E+00   0.00000000000000E+00
      3.85184830195996E-19  -9.72764272870015E-34   3.85184830195995E-19  -1.45573582318016E-17   1.82439075659519E-02
      1.82439073828629E-02   0.00000000000000E+00   0.00000000000000E+00   9.63187181828391E-10   3.70478766629382E-34
      9.63187181828391E-10   5.97295489752129E-18
      4.73809432684667E-02
      0.00000000000000E+00   1.89196526141762E-10   0.00000000000000E+00   0.00000000000000E+00  -1.00772414035951E-09
      6.38511251820460E-34  -1.00772414035951E-09   5.78282652936050E-18   0.00000000000000E+00   0.00000000000000E+00
      0.00000000000000E+00   0.00000000000000E+00   0.00000000000000E+00   0.00000000000000E+00   0.00000000000000E+00
      2.77194085901532E-18   0.00000000000000E+00   0.00000000000000E+00   0.00000000000000E+00   0.00000000000000E+00
     -1.31614261283856E-17  -9.99103973545270E-34  -1.31614261283856E-17  -1.45571954675648E-17   2.03738056054407E-02
      2.03738054138877E-02   0.00000000000000E+00   0.00000000000000E+00   1.00772415352093E-09   3.60592721724810E-34
      1.00772415352093E-09   6.00242807918894E-18
      5.27964979735236E-02
      0.00000000000000E+00   1.96721827931897E-10   0.00000000000000E+00   0.00000000000000E+00  -1.04783966278200E-09
      6.67789128649639E-34  -1.04783966278200E-09   5.78116394326142E-18   0.00000000000000E+00   0.00000000000000E+00
      0.00000000000000E+00   0.00000000000000E+00   0.00000000000000E+00   0.00000000000000E+00   0.00000000000000E+00
      2.74121790668823E-18   0.00000000000000E+00   0.00000000000000E+00   0.00000000000000E+00   0.00000000000000E+00
     -6.66023917115681E-19  -9.78645027216181E-34  -6.66023917115682E-19  -1.45570375290968E-17   2.27024941286152E-02
      2.27024939294417E-02   0.00000000000000E+00   0.00000000000000E+00   1.04783966344802E-09   3.10855898566542E-34
      1.04783966344802E-09   6.03465567914712E-18
      5.87175044510525E-02
      0.00000000000000E+00   2.03370140043835E-10   0.00000000000000E+00   0.00000000000000E+00  -1.08330583734699E-09
      6.37901102469633E-34  -1.08330583734699E-09   5.77934664938706E-18   0.00000000000000E+00   0.00000000000000E+00
      0.00000000000000E+00   0.00000000000000E+00   0.00000000000000E+00   0.00000000000000E+00   0.00000000000000E+00
      2.70764645421505E-18   0.00000000000000E+00   0.00000000000000E+00   0.00000000000000E+00   0.00000000000000E+00
     -2.89792266172073E-19  -9.37670698535678E-34  -2.89792266172074E-19  -1.45568881854087E-17   2.52485269139526E-02
      2.52485267080467E-02   0.00000000000000E+00   0.00000000000000E+00   1.08330583763678E-09   2.99769596066045E-34
      1.08330583763678E-09   6.06989508180657E-18
      6.51911381998174E-02
      0.00000000000000E+00   2.09137540521753E-10   0.00000000000000E+00   0.00000000000000E+00  -1.11410764492861E-09
      6.28476651047509E-34  -1.11410764492861E-09   5.77736028730863E-18   0.00000000000000E+00   0.00000000000000E+00
      0.00000000000000E+00   0.00000000000000E+00   0.00000000000000E+00   0.00000000000000E+00   0.00000000000000E+00
      2.67096411802716E-18   0.00000000000000E+00   0.00000000000000E+00   0.00000000000000E+00   0.00000000000000E+00
     -2.24320115894935E-19  -8.85922743219346E-34  -2.24320115894935E-19  -1.45567520477349E-17   2.80321894259215E-02
      2.80321892141753E-02   0.00000000000000E+00   0.00000000000000E+00   1.11410764515293E-09   2.57446092171837E-34
      1.11410764515293E-09   6.10842764239915E-18
      7.22689777651337E-02
      0.00000000000000E+00   2.14067063263654E-10   0.00000000000000E+00   0.00000000000000E+00  -1.14048051259166E-09
      6.42888628403591E-34  -1.14048051259166E-09   5.77518916889560E-18   0.00000000000000E+00   0.00000000000000E+00
      0.00000000000000E+00   0.00000000000000E+00   0.00000000000000E+00   0.00000000000000E+00   0.00000000000000E+00
      2.63088465203971E-18   0.00000000000000E+00   0.00000000000000E+00   0.00000000000000E+00   0.00000000000000E+00
     -2.44301791256021E-19  -8.82453352665909E-34  -2.44301791256022E-19  -1.45566347048742E-17   3.10756604390075E-02
      3.10756602222701E-02   0.00000000000000E+00   0.00000000000000E+00   1.14048051283596E-09   2.39564724262319E-34
      1.14048051283596E-09   6.15056088393887E-18
      8.00074156898795E-02
      0.00000000000000E+00   2.18252755424992E-10   0.00000000000000E+00   0.00000000000000E+00  -1.16293174061098E-09
      5.90336883602849E-34  -1.16293174061098E-09   5.77281615642926E-18   0.00000000000000E+00   0.00000000000000E+00
      0.00000000000000E+00   0.00000000000000E+00   0.00000000000000E+00   0.00000000000000E+00   0.00000000000000E+00
      2.58709583332289E-18   0.00000000000000E+00   0.00000000000000E+00   0.00000000000000E+00   0.00000000000000E+00
      9.56034733855477E-19  -8.08886670724090E-34   9.56034733855476E-19  -1.45565428726924E-17   3.44031887466482E-02
      3.44031885256739E-02   0.00000000000000E+00   0.00000000000000E+00   1.16293173965495E-09   2.18549787121241E-34
      1.16293173965495E-09   6.19663088294017E-18
      8.84681078209350E-02
      0.00000000000000E+00   2.21838327579343E-10   0.00000000000000E+00   0.00000000000000E+00  -1.18223272363040E-09
      5.95937964423037E-34  -1.18223272363040E-09   5.77022252984389E-18   0.00000000000000E+00   0.00000000000000E+00
      0.00000000000000E+00   0.00000000000000E+00   0.00000000000000E+00   0.00000000000000E+00   0.00000000000000E+00
      2.53925717283459E-18   0.00000000000000E+00   0.00000000000000E+00   0.00000000000000E+00   0.00000000000000E+00
      6.49867200848042E-20  -7.77732008282076E-34   6.49867200848035E-20  -1.45564845600135E-17   3.80412863630020E-02
      3.80412861384004E-02   0.00000000000000E+00   0.00000000000000E+00   1.18223272356541E-09   1.81794043859039E-34
      1.18223272356541E-09   6.24700485733508E-18
      9.77184645508889E-02
      0.00000000000000E+00   2.25007778597282E-10   0.00000000000000E+00   0.00000000000000E+00  -1.19936790514203E-09
      6.15850377803479E-34  -1.19936790514203E-09   5.76738784224598E-18   0.00000000000000E+00   0.00000000000000E+00
      0.00000000000000E+00   0.00000000000000E+00   0.00000000000000E+00   0.00000000000000E+00   0.00000000000000E+00
      2.48699744073750E-18   0.00000000000000E+00   0.00000000000000E+00   0.00000000000000E+00   0.00000000000000E+00
     -3.70869309009167E-18  -7.77087686505948E-34  -3.70869309009167E-18  -1.45564692513059E-17   4.20189397568822E-02
      4.20189395290772E-02   0.00000000000000E+00   0.00000000000000E+00   1.19936790885072E-09   1.61237308702468E-34
      1.19936790885072E-09   6.30208396832240E-18
      1.07718464550889E-01
      0.00000000000000E+00   2.27936710513867E-10   0.00000000000000E+00   0.00000000000000E+00  -1.21527134525761E-09
      6.62541308754293E-34  -1.21527134525761E-09   5.76432459232597E-18   0.00000000000000E+00   0.00000000000000E+00
      0.00000000000000E+00   0.00000000000000E+00   0.00000000000000E+00   0.00000000000000E+00   0.00000000000000E+00
      2.43055359509611E-18   0.00000000000000E+00   0.00000000000000E+00   0.00000000000000E+00   0.00000000000000E+00
      9.00936387063824E-19  -8.05456256785337E-34   9.00936387063823E-19  -1.45565073593002E-17   4.63189397568822E-02
      4.63189395261208E-02   0.00000000000000E+00   0.00000000000000E+00   1.21527134435667E-09   1.42914948031044E-34
      1.21527134435667E-09   6.36162917187818E-18
      1.17718464550889E-01
      0.00000000000000E+00   2.30620833066598E-10   0.00000000000000E+00   0.00000000000000E+00  -1.22989547066083E-09
      6.28940087025584E-34  -1.22989547066083E-09   5.76126251993163E-18   0.00000000000000E+00   0.00000000000000E+00
      0.00000000000000E+00   0.00000000000000E+00   0.00000000000000E+00   0.00000000000000E+00   0.00000000000000E+00
      2.37416218678277E-18   0.00000000000000E+00   0.00000000000000E+00   0.00000000000000E+00   0.00000000000000E+00
     -1.97349691385267E-17  -7.48189044860722E-34  -1.97349691385267E-17  -1.45565999128000E-17   5.06189397568822E-02
      5.06189395234154E-02   0.00000000000000E+00   0.00000000000000E+00   1.22989549039580E-09   1.19248957835138E-34
      1.22989549039580E-09   6.42117520608558E-18
      1.27718464550889E-01
      0.00000000000000E+00   2.33224477828007E-10   0.00000000000000E+00   0.00000000000000E+00  -1.24411025321835E-09
      6.35829376110477E-34  -1.24411025321835E-09   5.75820160278279E-18   0.00000000000000E+00   0.00000000000000E+00
      0.00000000000000E+00   0.00000000000000E+00   0.00000000000000E+00   0.00000000000000E+00   0.00000000000000E+00
      2.31782276525616E-18   0.00000000000000E+00   0.00000000000000E+00   0.00000000000000E+00   0.00000000000000E+00
     -3.84093660643007E-18  -7.43054350865158E-34  -3.84093660643007E-18  -1.45567446665879E-17   5.49189397568822E-02
      5.49189395207956E-02   0.00000000000000E+00   0.00000000000000E+00   1.24411025705928E-09   1.07224974754681E-34
      1.24411025705928E-09   6.48072029854891E-18
      1.37718464550889E-01
      0.00000000000000E+00   2.35830620487951E-10   0.00000000000000E+00   0.00000000000000E+00  -1.25835484805757E-09
      6.02809905807729E-34  -1.25835484805757E-09   5.75514182345080E-18   0.00000000000000E+00   0.00000000000000E+00
      0.00000000000000E+00   0.00000000000000E+00   0.00000000000000E+00   0.00000000000000E+00   0.00000000000000E+00
      2.26153497314367E-18   0.00000000000000E+00   0.00000000000000E+00   0.00000000000000E+00   0.00000000000000E+00
     -2.23093278463673E-17  -6.93923387149561E-34  -2.23093278463673E-17  -1.45569395267997E-17   5.92189397568822E-02
      5.92189395181760E-02   0.00000000000000E+00   0.00000000000000E+00   1.25835487036690E-09   9.11134813418319E-35
      1.25835487036690E-09   6.54026273020519E-18
      1.47718464550889E-01
      0.00000000000000E+00   2.38471396035619E-10   0.00000000000000E+00   0.00000000000000E+00  -1.27279500586851E-09
      6.38472389758956E-34  -1.27279500586851E-09   5.75208316864444E-18   0.00000000000000E+00   0.00000000000000E+00
      0.00000000000000E+00   0.00000000000000E+00   0.00000000000000E+00   0.00000000000000E+00   0.00000000000000E+00
      2.20529854643462E-18   0.00000000000000E+00   0.00000000000000E+00   0.00000000000000E+00   0.00000000000000E+00
      2.19558617566253E-17  -7.13854648126096E-34   2.19558617566253E-17  -1.45571825508805E-17   6.35189397568822E-02
      6.35189395155231E-02   0.00000000000000E+00   0.00000000000000E+00   1.27279498391265E-09   7.53822583671400E-35
      1.27279498391265E-09   6.59980083580149E-18
      1.57718464550889E-01
      0.00000000000000E+00   2.41151245024896E-10   0.00000000000000E+00   0.00000000000000E+00  -1.28745002578863E-09
      5.97688751048769E-34  -1.28745002578863E-09   5.74902562810178E-18   0.00000000000000E+00   0.00000000000000E+00
      0.00000000000000E+00   0.00000000000000E+00   0.00000000000000E+00   0.00000000000000E+00   0.00000000000000E+00
      2.14911330172249E-18   0.00000000000000E+00   0.00000000000000E+00   0.00000000000000E+00   0.00000000000000E+00
      2.05894954876724E-17  -6.63071025970289E-34   2.05894954876724E-17  -1.45574719299325E-17   6.78189397568822E-02
      6.78189395128321E-02   0.00000000000000E+00   0.00000000000000E+00   1.28745000519914E-09   6.53822749215190E-35
      1.28745000519914E-09   6.65933300010829E-18
      1.67718464550889E-01
      0.00000000000000E+00   2.43863456295894E-10   0.00000000000000E+00   0.00000000000000E+00  -1.30228306683374E-09
      6.24502741074360E-34  -1.30228306683374E-09   5.74596919363129E-18   0.00000000000000E+00   0.00000000000000E+00
      0.00000000000000E+00   0.00000000000000E+00   0.00000000000000E+00   0.00000000000000E+00   0.00000000000000E+00
      2.09297912409336E-18   0.00000000000000E+00   0.00000000000000E+00   0.00000000000000E+00   0.00000000000000E+00
     -7.32543358591424E-18  -6.77364443557950E-34  -7.32543358591424E-18  -1.45578059738550E-17   7.21189397568822E-02
      7.21189395101102E-02   0.00000000000000E+00   0.00000000000000E+00   1.30228307415917E-09   5.28617024835901E-35
      1.30228307415917E-09   6.71885765613034E-18
      1.77718464550889E-01
      0.00000000000000E+00   2.46600233250922E-10   0.00000000000000E+00   0.00000000000000E+00  -1.31725385427857E-09
      6.17105981659154E-34  -1.31725385427857E-09   5.74291385859960E-18   0.00000000000000E+00   0.00000000000000E+00
      0.00000000000000E+00   0.00000000000000E+00   0.00000000000000E+00   0.00000000000000E+00   0.00000000000000E+00
      2.03689595208976E-18   0.00000000000000E+00   0.00000000000000E+00   0.00000000000000E+00   0.00000000000000E+00
     -1.01649076077432E-17  -6.64296546220341E-34  -1.01649076077432E-17  -1.45581830924825E-17   7.64189397568823E-02
      7.64189395073664E-02   0.00000000000000E+00   0.00000000000000E+00   1.31725386444348E-09   4.71905645611876E-35
      1.31725386444348E-09   6.77837328179311E-18
      1.87718464550889E-01
      0.00000000000000E+00   2.49356156122759E-10   0.00000000000000E+00   0.00000000000000E+00  -1.33233513217382E-09