DF-ISE text

Info {
  version   = 1.0
  type      = xyplot
  datasets  = [
    "time"
    "source OuterVoltage" "source InnerVoltage" "source QuasiFermiPotential" "source DisplacementCurrent" "source eCurrent"
    "source hCurrent" "source TotalCurrent" "source Charge" "gate OuterVoltage" "gate InnerVoltage"
    "gate QuasiFermiPotential" "gate DisplacementCurrent" "gate eCurrent" "gate hCurrent" "gate TotalCurrent"
    "gate Charge" "substrate OuterVoltage" "substrate InnerVoltage" "substrate QuasiFermiPotential" "substrate DisplacementCurrent"
    "substrate eCurrent" "substrate hCurrent" "substrate TotalCurrent" "substrate Charge" "drain OuterVoltage"
    "drain InnerVoltage" "drain QuasiFermiPotential" "drain DisplacementCurrent" "drain eCurrent" "drain hCurrent"
    "drain TotalCurrent" "drain Charge" ]
  functions = [
    Time
    OuterVoltage InnerVoltage QuasiFermiPotential DisplacementCurrent eCurrent
    hCurrent TotalCurrent Charge OuterVoltage InnerVoltage
    QuasiFermiPotential DisplacementCurrent eCurrent hCurrent TotalCurrent
    Charge OuterVoltage InnerVoltage QuasiFermiPotential DisplacementCurrent
    eCurrent hCurrent TotalCurrent Charge OuterVoltage
    InnerVoltage QuasiFermiPotential DisplacementCurrent eCurrent hCurrent
    TotalCurrent Charge ]
}

Data {
      0.00000000000000E+00
      0.00000000000000E+00   0.00000000000000E+00   0.00000000000000E+00   0.00000000000000E+00  -2.23113242079749E-19
     -9.68585889954484E-35  -2.23113242079749E-19   6.89777038672754E-18   0.00000000000000E+00   0.00000000000000E+00
      0.00000000000000E+00   0.00000000000000E+00   0.00000000000000E+00   0.00000000000000E+00   0.00000000000000E+00
      3.66359356819026E-18   0.00000000000000E+00   0.00000000000000E+00   0.00000000000000E+00   0.00000000000000E+00
      2.22067580287416E-19   1.46710803634809E-34   2.22067580287416E-19  -1.57127838479523E-17   0.00000000000000E+00
      0.00000000000000E+00   0.00000000000000E+00   0.00000000000000E+00   1.04566179233354E-21  -4.98522146393605E-35
      1.04566179233349E-21   5.15141989303448E-18
      0.00000000000000E+00
      0.00000000000000E+00   3.49884713171531E-18   0.00000000000000E+00   0.00000000000000E+00  -1.07289855213724E-17
     -1.26895043805829E-34  -1.07289855213724E-17   6.89265534527837E-18   0.00000000000000E+00   0.00000000000000E+00
      0.00000000000000E+00   0.00000000000000E+00   0.00000000000000E+00   0.00000000000000E+00   0.00000000000000E+00
      3.65431140574097E-18   0.00000000000000E+00   0.00000000000000E+00   0.00000000000000E+00   0.00000000000000E+00
      1.10465630293690E-17   1.67179908727659E-34   1.10465630293690E-17  -1.56942584270858E-17   0.00000000000000E+00
      0.00000000000000E+00   0.00000000000000E+00   0.00000000000000E+00  -3.17577507996615E-19  -4.02848649218301E-35
     -3.17577507996615E-19   5.14729167606642E-18
      1.00000000000000E-03
      0.00000000000000E+00   1.78579561253745E-11   0.00000000000000E+00   0.00000000000000E+00  -1.00231898652993E-10
     -7.61446556317518E-35  -1.00231898652993E-10   6.89209334712713E-18   0.00000000000000E+00   0.00000000000000E+00
      0.00000000000000E+00   0.00000000000000E+00   0.00000000000000E+00   0.00000000000000E+00   0.00000000000000E+00
      3.64439626247645E-18   0.00000000000000E+00   0.00000000000000E+00   0.00000000000000E+00   0.00000000000000E+00
     -7.61271290493737E-18   1.42686673958405E-34  -7.61271290493737E-18  -1.56942109386140E-17   8.60000000000000E-04
      8.59999982169171E-04   0.00000000000000E+00   0.00000000000000E+00   1.00231906265706E-10  -6.65420183266527E-35
      1.00231906265706E-10   5.15772132901039E-18
      2.08666666666667E-03
      0.00000000000000E+00   3.61401487775372E-11   0.00000000000000E+00   0.00000000000000E+00  -2.02840669715368E-10
     -1.07641063375174E-34  -2.02840669715368E-10   6.89148269864322E-18   0.00000000000000E+00   0.00000000000000E+00
      0.00000000000000E+00   0.00000000000000E+00   0.00000000000000E+00   0.00000000000000E+00   0.00000000000000E+00
      3.63362404204878E-18   0.00000000000000E+00   0.00000000000000E+00   0.00000000000000E+00   0.00000000000000E+00
      3.37856231590958E-16   1.66283647024396E-34   3.37856231590958E-16  -1.56941647329280E-17   1.79453333333333E-03
      1.79453329724818E-03   0.00000000000000E+00   0.00000000000000E+00   2.02840331859136E-10  -5.86425836492219E-35
      2.02840331859136E-10   5.16905799223596E-18
      3.28200000000000E-03
      0.00000000000000E+00   5.49207727593396E-11   0.00000000000000E+00   0.00000000000000E+00  -3.08238560271930E-10
     -7.72932627748903E-35  -3.08238560271930E-10   6.89081105204740E-18   0.00000000000000E+00   0.00000000000000E+00
      0.00000000000000E+00   0.00000000000000E+00   0.00000000000000E+00   0.00000000000000E+00   0.00000000000000E+00
      3.62177724547105E-18   0.00000000000000E+00   0.00000000000000E+00   0.00000000000000E+00   0.00000000000000E+00
      5.10453528361149E-16   9.90694122539466E-35   5.10453528361149E-16  -1.56941203164954E-17   2.82252000000000E-03
      2.82251994516359E-03   0.00000000000000E+00   0.00000000000000E+00   3.08238049818402E-10  -2.17761494790562E-35
      3.08238049818402E-10   5.18153201897693E-18
      4.59686666666667E-03
      0.00000000000000E+00   7.40382119482090E-11   0.00000000000000E+00   0.00000000000000E+00  -4.15517888669727E-10
     -8.87575681966526E-35  -4.15517888669727E-10   6.89007232022664E-18   0.00000000000000E+00   0.00000000000000E+00
      0.00000000000000E+00   0.00000000000000E+00   0.00000000000000E+00   0.00000000000000E+00   0.00000000000000E+00
      3.60874891493364E-18   0.00000000000000E+00   0.00000000000000E+00   0.00000000000000E+00   0.00000000000000E+00
      7.43287349152006E-16   1.34349671754317E-34   7.43287349152006E-16  -1.56940791046296E-17   3.95330533333333E-03
      3.95330525940991E-03   0.00000000000000E+00   0.00000000000000E+00   4.15517145382378E-10  -4.55921035576648E-35
      4.15517145382378E-10   5.19525786946926E-18
      6.04322000000000E-03
      0.00000000000000E+00   9.33091630549823E-11   0.00000000000000E+00   0.00000000000000E+00  -5.23646817037058E-10
     -7.79777004248349E-35  -5.23646817037058E-10   6.88925980948386E-18   0.00000000000000E+00   0.00000000000000E+00
      0.00000000000000E+00   0.00000000000000E+00   0.00000000000000E+00   0.00000000000000E+00   0.00000000000000E+00
      3.59442148461366E-18   0.00000000000000E+00   0.00000000000000E+00   0.00000000000000E+00   0.00000000000000E+00
     -1.27980129315263E-18   1.23006427056064E-34  -1.27980129315263E-18  -1.56940428798002E-17   5.19716920000000E-03
      5.19716910683745E-03   0.00000000000000E+00   0.00000000000000E+00   5.23646818316860E-10  -4.50287266312287E-35
      5.23646818316860E-10   5.21036158570271E-18
      7.62456631111111E-03
      0.00000000000000E+00   1.12416961170580E-10   0.00000000000000E+00   0.00000000000000E+00  -6.30852168285918E-10
     -6.17862503093295E-35  -6.30852168285918E-10   6.88837157492146E-18   0.00000000000000E+00   0.00000000000000E+00
      0.00000000000000E+00   0.00000000000000E+00   0.00000000000000E+00   0.00000000000000E+00   0.00000000000000E+00
      3.57876120925280E-18   0.00000000000000E+00   0.00000000000000E+00   0.00000000000000E+00   0.00000000000000E+00
     -3.03596390456343E-18   8.50981680103229E-35  -3.03596390456343E-18  -1.56940140080199E-17   6.55712702755556E-03
      6.55712691531681E-03   0.00000000000000E+00   0.00000000000000E+00   6.30852171321882E-10  -2.33119177009934E-35
      6.30852171321882E-10   5.22688122384568E-18
      9.35350494459260E-03
      0.00000000000000E+00   1.31153020773822E-10   0.00000000000000E+00   0.00000000000000E+00  -7.35962244029380E-10
     -1.02011106039951E-34  -7.35962244029380E-10   6.88740056727796E-18   0.00000000000000E+00   0.00000000000000E+00
      0.00000000000000E+00   0.00000000000000E+00   0.00000000000000E+00   0.00000000000000E+00   0.00000000000000E+00
      3.56164442578049E-18   0.00000000000000E+00   0.00000000000000E+00   0.00000000000000E+00   0.00000000000000E+00
     -3.51372049394579E-19   1.26414396580905E-34  -3.51372049394579E-19  -1.56939950345797E-17   8.04401425234963E-03
      8.04401412140639E-03   0.00000000000000E+00   0.00000000000000E+00   7.35962244380752E-10  -2.44032905409537E-35
      7.35962244380752E-10   5.24495004152122E-18
      1.12438111838657E-02
      0.00000000000000E+00   1.49299487460119E-10   0.00000000000000E+00   0.00000000000000E+00  -8.37756221744559E-10
     -8.64029994258502E-35  -8.37756221744559E-10   6.88633908192873E-18   0.00000000000000E+00   0.00000000000000E+00
      0.00000000000000E+00   0.00000000000000E+00   0.00000000000000E+00   0.00000000000000E+00   0.00000000000000E+00
      3.54293603992272E-18   0.00000000000000E+00   0.00000000000000E+00   0.00000000000000E+00   0.00000000000000E+00
     -1.79391788369641E-18   1.31504805062379E-34  -1.79391788369641E-18  -1.56939890390296E-17   9.66967761812449E-03
      9.66967746906590E-03   0.00000000000000E+00   0.00000000000000E+00   8.37756223538477E-10  -4.51018056365291E-35
      8.37756223538477E-10   5.26471391717816E-18
      1.33105460054709E-02
      0.00000000000000E+00   1.66636041887078E-10   0.00000000000000E+00   0.00000000000000E+00  -9.35000714962634E-10
     -1.11993780234127E-34  -9.35000714962634E-10   6.88517869793580E-18   0.00000000000000E+00   0.00000000000000E+00
      0.00000000000000E+00   0.00000000000000E+00   0.00000000000000E+00   0.00000000000000E+00   0.00000000000000E+00
      3.52248847178635E-18   0.00000000000000E+00   0.00000000000000E+00   0.00000000000000E+00   0.00000000000000E+00
      6.17685193521369E-19   1.52163595133801E-34   6.17685193521369E-19  -1.56939997245911E-17   1.14470695647050E-02
      1.14470693983400E-02   0.00000000000000E+00   0.00000000000000E+00   9.35000714344948E-10  -4.01698148996738E-35
      9.35000714344948E-10   5.28633255486893E-18
      1.55701760770927E-02
      0.00000000000000E+00   1.82948247149047E-10   0.00000000000000E+00   0.00000000000000E+00  -1.02649666421674E-09
     -5.44670036697434E-35  -1.02649666421674E-09   6.88391021140877E-18   0.00000000000000E+00   0.00000000000000E+00
      0.00000000000000E+00   0.00000000000000E+00   0.00000000000000E+00   0.00000000000000E+00   0.00000000000000E+00
      3.50014050409583E-18   0.00000000000000E+00   0.00000000000000E+00   0.00000000000000E+00   0.00000000000000E+00
      9.98485353957060E-19   8.13431478616068E-35   9.98485353957060E-19  -1.56940315201131E-17   1.33903514262997E-02
      1.33903512436513E-02   0.00000000000000E+00   0.00000000000000E+00   1.02649666321826E-09  -2.68761441918635E-35
      1.02649666321826E-09   5.30998080460842E-18
      1.80407049553991E-02
      0.00000000000000E+00   1.98038005956478E-10   0.00000000000000E+00   0.00000000000000E+00  -1.11113829544689E-09
     -1.13640115507059E-34  -1.11113829544689E-09   6.88252356257045E-18   0.00000000000000E+00   0.00000000000000E+00
      0.00000000000000E+00   0.00000000000000E+00   0.00000000000000E+00   0.00000000000000E+00   0.00000000000000E+00
      3.47571602186135E-18   0.00000000000000E+00   0.00000000000000E+00   0.00000000000000E+00   0.00000000000000E+00
     -2.74898010913923E-18   1.40347137763933E-34  -2.74898010913923E-18  -1.56940896930147E-17   1.55150062616432E-02
      1.55150060639320E-02   0.00000000000000E+00   0.00000000000000E+00   1.11113829819587E-09  -2.67070222568737E-35
      1.11113829819587E-09   5.33585010858288E-18
      2.07418165290141E-02
      0.00000000000000E+00   2.11735373618557E-10   0.00000000000000E+00   0.00000000000000E+00  -1.18797940275937E-09
     -5.70000736143326E-35  -1.18797940275937E-09   6.88100775597464E-18   0.00000000000000E+00   0.00000000000000E+00
      0.00000000000000E+00   0.00000000000000E+00   0.00000000000000E+00   0.00000000000000E+00   0.00000000000000E+00
      3.44902263447090E-18   0.00000000000000E+00   0.00000000000000E+00   0.00000000000000E+00   0.00000000000000E+00
     -2.35642016172055E-18   8.08472947912914E-35  -2.35642016172055E-18  -1.56941804758292E-17   1.78379622149521E-02
      1.78379620035681E-02   0.00000000000000E+00   0.00000000000000E+00   1.18797940511579E-09  -2.38472211769589E-35
      1.18797940511579E-09   5.36415008538372E-18
      2.36950318494999E-02
      0.00000000000000E+00   2.23911787184208E-10   0.00000000000000E+00   0.00000000000000E+00  -1.25630766222402E-09
     -5.58894167289076E-35  -1.25630766222402E-09   6.87935077318391E-18   0.00000000000000E+00   0.00000000000000E+00
      0.00000000000000E+00   0.00000000000000E+00   0.00000000000000E+00   0.00000000000000E+00   0.00000000000000E+00
      3.41985016775881E-18   0.00000000000000E+00   0.00000000000000E+00   0.00000000000000E+00   0.00000000000000E+00
      1.27537464824013E-18   8.46694882664635E-35   1.27537464824013E-18  -1.56943112059425E-17   2.03777273905699E-02
      2.03777271670312E-02   0.00000000000000E+00   0.00000000000000E+00   1.25630766094864E-09  -2.87800715375559E-35
      1.25630766094864E-09   5.39511026499975E-18
      2.69238805998977E-02
      0.00000000000000E+00   2.34493989104256E-10   0.00000000000000E+00   0.00000000000000E+00  -1.31572244876962E-09
     -9.77490993294841E-35  -1.31572244876962E-09   6.87753947712911E-18   0.00000000000000E+00   0.00000000000000E+00
      0.00000000000000E+00   0.00000000000000E+00   0.00000000000000E+00   0.00000000000000E+00   0.00000000000000E+00
      3.38796901081467E-18   0.00000000000000E+00   0.00000000000000E+00   0.00000000000000E+00   0.00000000000000E+00
     -1.53502259032313E-18   1.18182763616533E-34  -1.53502259032313E-18  -1.56944904748519E-17   2.31545373159120E-02
      2.31545370818098E-02   0.00000000000000E+00   0.00000000000000E+00   1.31572245030465E-09  -2.04336642870486E-35
      1.31572245030465E-09   5.42898198690817E-18
      3.04540885669992E-02
      0.00000000000000E+00   2.43476698743668E-10   0.00000000000000E+00   0.00000000000000E+00  -1.36620578643542E-09
     -1.15116497186292E-34  -1.36620578643542E-09   6.87555950748552E-18   0.00000000000000E+00   0.00000000000000E+00
      0.00000000000000E+00   0.00000000000000E+00   0.00000000000000E+00   0.00000000000000E+00   0.00000000000000E+00
      3.35312830828549E-18   0.00000000000000E+00   0.00000000000000E+00   0.00000000000000E+00   0.00000000000000E+00
      3.39946338803337E-19   1.44342320868859E-34   3.39946338803337E-19  -1.56947282942303E-17   2.61905161676193E-02
      2.61905159245503E-02   0.00000000000000E+00   0.00000000000000E+00   1.36620578609547E-09  -2.92258236825673E-35
      1.36620578609547E-09   5.46604047845930E-18
      3.43137826110303E-02
      0.00000000000000E+00   2.50933430816882E-10   0.00000000000000E+00   0.00000000000000E+00  -1.40818267233390E-09
     -8.68416828695891E-35  -1.40818267233390E-09   6.87339516598072E-18   0.00000000000000E+00   0.00000000000000E+00
      0.00000000000000E+00   0.00000000000000E+00   0.00000000000000E+00   0.00000000000000E+00   0.00000000000000E+00
      3.31505397531804E-18   0.00000000000000E+00   0.00000000000000E+00   0.00000000000000E+00   0.00000000000000E+00
     -4.27303065110273E-18   1.09234090997711E-34  -4.27303065110273E-18  -1.56950362673975E-17   2.95098530454860E-02
      2.95098527949735E-02   0.00000000000000E+00   0.00000000000000E+00   1.40818267660693E-09  -2.23924081281218E-35
      1.40818267660693E-09   5.50658712609874E-18
      3.85337147658375E-02
      0.00000000000000E+00   2.57022865913729E-10   0.00000000000000E+00   0.00000000000000E+00  -1.44255573932019E-09
     -8.48831846151499E-35  -1.44255573932019E-09   6.87102929089254E-18   0.00000000000000E+00   0.00000000000000E+00
      0.00000000000000E+00   0.00000000000000E+00   0.00000000000000E+00   0.00000000000000E+00   0.00000000000000E+00
      3.27344651756187E-18   0.00000000000000E+00   0.00000000000000E+00   0.00000000000000E+00   0.00000000000000E+00
     -7.27007907190312E-19   1.00894505623152E-34  -7.27007907190312E-19  -1.56954277663611E-17   3.31389946986203E-02
      3.31389944420297E-02   0.00000000000000E+00   0.00000000000000E+00   1.44255574004720E-09  -1.60113210080022E-35
      1.44255574004720E-09   5.55095195790673E-18
      4.31475072550935E-02
      0.00000000000000E+00   2.61985019261818E-10   0.00000000000000E+00   0.00000000000000E+00  -1.47068307024438E-09
     -6.26215207736771E-35  -1.47068307024438E-09   6.86844311980617E-18   0.00000000000000E+00   0.00000000000000E+00
      0.00000000000000E+00   0.00000000000000E+00   0.00000000000000E+00   0.00000000000000E+00   0.00000000000000E+00
      3.22797864617839E-18   0.00000000000000E+00   0.00000000000000E+00   0.00000000000000E+00   0.00000000000000E+00
     -5.05432701233951E-17   7.72308703036811E-35  -5.05432701233951E-17  -1.56959181227490E-17   3.71068562393804E-02
      3.71068559778382E-02   0.00000000000000E+00   0.00000000000000E+00   1.47068312078766E-09  -1.46093495300040E-35
      1.47068312078766E-09   5.59949635676447E-18
      4.81919203766800E-02
      0.00000000000000E+00   2.66126350945212E-10   0.00000000000000E+00   0.00000000000000E+00  -1.49429218314496E-09
     -1.01613625582082E-34  -1.49429218314496E-09   6.86561613944995E-18   0.00000000000000E+00   0.00000000000000E+00
      0.00000000000000E+00   0.00000000000000E+00   0.00000000000000E+00   0.00000000000000E+00   0.00000000000000E+00
      3.17829265251870E-18   0.00000000000000E+00   0.00000000000000E+00   0.00000000000000E+00   0.00000000000000E+00
     -8.35773266032996E-17   1.15976096861130E-34  -8.35773266032996E-17  -1.56965248111478E-17   4.14450515239448E-02
      4.14450512582728E-02   0.00000000000000E+00   0.00000000000000E+00   1.49429226672229E-09  -1.43624712790476E-35
      1.49429226672229E-09   5.65261601917923E-18
      5.37071453896146E-02
      0.00000000000000E+00   2.69790070751468E-10   0.00000000000000E+00   0.00000000000000E+00  -1.51531454625812E-09
     -9.47621272760891E-35  -1.51531454625812E-09   6.86252592187678E-18   0.00000000000000E+00   0.00000000000000E+00
      0.00000000000000E+00   0.00000000000000E+00   0.00000000000000E+00   0.00000000000000E+00   0.00000000000000E+00
      3.12399753906992E-18   0.00000000000000E+00   0.00000000000000E+00   0.00000000000000E+00   0.00000000000000E+00
     -1.39478851547271E-16   1.01535232659437E-34  -1.39478851547271E-16  -1.56972676455501E-17   4.61881450350685E-02
      4.61881447657473E-02   0.00000000000000E+00   0.00000000000000E+00   1.51531468573698E-09  -6.77310538334801E-36
      1.51531468573698E-09   5.71074418460345E-18
      5.97371247370897E-02
      0.00000000000000E+00   2.73315110690167E-10   0.00000000000000E+00   0.00000000000000E+00  -1.53565504829695E-09
     -6.90169783468807E-35  -1.53565504829695E-09   6.85914794611850E-18   0.00000000000000E+00   0.00000000000000E+00
      0.00000000000000E+00   0.00000000000000E+00   0.00000000000000E+00   0.00000000000000E+00   0.00000000000000E+00
      3.06466588382197E-18   0.00000000000000E+00   0.00000000000000E+00   0.00000000000000E+00   0.00000000000000E+00
     -1.66569805627904E-16   7.74237958120076E-35  -1.66569805627904E-16  -1.56981689852834E-17   5.13739272738972E-02
      5.13739270010703E-02   0.00000000000000E+00   0.00000000000000E+00   1.53565521486676E-09  -8.40681746512697E-36
      1.53565521486676E-09   5.77435515534296E-18
      6.63299021569959E-02
      0.00000000000000E+00   2.76984698063063E-10   0.00000000000000E+00   0.00000000000000E+00  -1.55690109512529E-09
     -5.31532148206556E-35  -1.55690109512529E-09   6.85545540426341E-18   0.00000000000000E+00   0.00000000000000E+00
      0.00000000000000E+00   0.00000000000000E+00   0.00000000000000E+00   0.00000000000000E+00   0.00000000000000E+00
      2.99983042993581E-18   0.00000000000000E+00   0.00000000000000E+00   0.00000000000000E+00   0.00000000000000E+00
      7.11267543693884E-19   5.88347216342806E-35   7.11267543693884E-19  -1.56992539669314E-17   5.70437158550165E-02
      5.70437155785465E-02   0.00000000000000E+00   0.00000000000000E+00   1.55690109441402E-09  -5.68150681362504E-36
      1.55690109441402E-09   5.84396813273218E-18
      7.34940536199606E-02
      0.00000000000000E+00   2.80962411408613E-10   0.00000000000000E+00   0.00000000000000E+00  -1.57996451730477E-09
     -5.89426670357519E-35  -1.57996451730477E-09   6.85144359885520E-18   0.00000000000000E+00   0.00000000000000E+00
      0.00000000000000E+00   0.00000000000000E+00   0.00000000000000E+00   0.00000000000000E+00   0.00000000000000E+00
      2.92941226314102E-18   0.00000000000000E+00   0.00000000000000E+00   0.00000000000000E+00   0.00000000000000E+00
      5.57518567281893E-18   6.37792263576479E-35   5.57518567281893E-18  -1.57005425001836E-17   6.32048861131661E-02
      6.32048858327531E-02   0.00000000000000E+00   0.00000000000000E+00   1.57996451172959E-09  -4.83655932189594E-36
      1.57996451172959E-09   5.91968663818739E-18
      8.12790982097155E-02
      0.00000000000000E+00   2.85351558561941E-10   0.00000000000000E+00   0.00000000000000E+00  -1.60542704906367E-09
     -1.15530611630684E-34  -1.60542704906367E-09   6.84708490390007E-18   0.00000000000000E+00   0.00000000000000E+00
      0.00000000000000E+00   0.00000000000000E+00   0.00000000000000E+00   0.00000000000000E+00   0.00000000000000E+00
      2.85292997872715E-18   0.00000000000000E+00   0.00000000000000E+00   0.00000000000000E+00   0.00000000000000E+00
      4.42030984917400E-18   1.18563112550560E-34   4.42030984917400E-18  -1.57020623414750E-17   6.99000244603554E-02
      6.99000241755990E-02   0.00000000000000E+00   0.00000000000000E+00   1.60542704464336E-09  -3.03250091987625E-36
      1.60542704464336E-09   6.00204745884781E-18
      8.97388466639159E-02
      0.00000000000000E+00   2.90213797519269E-10   0.00000000000000E+00   0.00000000000000E+00  -1.63364596707971E-09
     -9.86903978527908E-35  -1.63364596707971E-09   6.84234930005859E-18   0.00000000000000E+00   0.00000000000000E+00
      0.00000000000000E+00   0.00000000000000E+00   0.00000000000000E+00   0.00000000000000E+00   0.00000000000000E+00
      2.76986045097309E-18   0.00000000000000E+00   0.00000000000000E+00   0.00000000000000E+00   0.00000000000000E+00
      9.92045013745029E-19   1.02706977967962E-34   9.92045013745029E-19  -1.57038440186253E-17   7.71754081309677E-02
      7.71754078414053E-02   0.00000000000000E+00   0.00000000000000E+00   1.63364596608767E-09  -4.01658011517127E-36
      1.63364596608767E-09   6.09163426759354E-18
      9.89317733174804E-02
      0.00000000000000E+00   2.95578244374359E-10   0.00000000000000E+00   0.00000000000000E+00  -1.66479598183220E-09
     -1.11184357400925E-34  -1.66479598183220E-09   6.83720416977470E-18   0.00000000000000E+00   0.00000000000000E+00
      0.00000000000000E+00   0.00000000000000E+00   0.00000000000000E+00   0.00000000000000E+00   0.00000000000000E+00
      2.67963525673036E-18   0.00000000000000E+00   0.00000000000000E+00   0.00000000000000E+00   0.00000000000000E+00
     -7.16014948833793E-19   1.13038983008390E-34  -7.16014948833793E-19  -1.57059210355682E-17   8.50813250530331E-02
      8.50813247581678E-02   0.00000000000000E+00   0.00000000000000E+00   1.66479598254822E-09  -1.85462560746418E-36
      1.66479598254822E-09   6.18908160906322E-18
      1.08921420281020E-01
      0.00000000000000E+00   3.01465152203834E-10   0.00000000000000E+00   0.00000000000000E+00  -1.69900783063159E-09
     -9.87119682390666E-35  -1.69900783063159E-09   6.83161406727090E-18   0.00000000000000E+00   0.00000000000000E+00
      0.00000000000000E+00   0.00000000000000E+00   0.00000000000000E+00   0.00000000000000E+00   0.00000000000000E+00
      2.58163671787026E-18   0.00000000000000E+00   0.00000000000000E+00   0.00000000000000E+00   0.00000000000000E+00
     -4.33759116864734E-20   1.00106310620077E-34  -4.33759116864733E-20  -1.57083299884776E-17   9.36724214416775E-02
      9.36724211409941E-02   0.00000000000000E+00   0.00000000000000E+00   1.69900783067497E-09  -1.39434238101044E-36
      1.69900783067497E-09   6.29507920333642E-18
      1.18921420281020E-01
      0.00000000000000E+00   3.07411577172443E-10   0.00000000000000E+00   0.00000000000000E+00  -1.73360133778522E-09
     -9.69569215422427E-35  -1.73360133778522E-09   6.82601903595585E-18   0.00000000000000E+00   0.00000000000000E+00
      0.00000000000000E+00   0.00000000000000E+00   0.00000000000000E+00   0.00000000000000E+00   0.00000000000000E+00
      2.48357959226128E-18   0.00000000000000E+00   0.00000000000000E+00   0.00000000000000E+00   0.00000000000000E+00
      5.87085297077762E-19   9.79635425583065E-35   5.87085297077762E-19  -1.57108856379793E-17   1.02272421441678E-01
      1.02272421135124E-01   0.00000000000000E+00   0.00000000000000E+00   1.73360133719813E-09  -1.00662101606394E-36
      1.73360133719813E-09   6.40128700976214E-18
      1.28921420281020E-01
      0.00000000000000E+00   3.13423265261888E-10   0.00000000000000E+00   0.00000000000000E+00  -1.76861002857393E-09
     -9.20579018866294E-35  -1.76861002857393E-09   6.82042476494004E-18   0.00000000000000E+00   0.00000000000000E+00
      0.00000000000000E+00   0.00000000000000E+00   0.00000000000000E+00   0.00000000000000E+00   0.00000000000000E+00
      2.38556082892182E-18   0.00000000000000E+00   0.00000000000000E+00   0.00000000000000E+00   0.00000000000000E+00
      3.11782443557620E-18   9.34525634803785E-35   3.11782443557620E-18  -1.57135724297238E-17   1.10872421441678E-01
      1.10872421129198E-01   0.00000000000000E+00   0.00000000000000E+00   1.76861002545611E-09  -1.39466159374915E-36
      1.76861002545611E-09   6.50758683586190E-18
      1.38921420281020E-01
      0.00000000000000E+00   3.19512549033596E-10   0.00000000000000E+00   0.00000000000000E+00  -1.80410403604462E-09
     -5.37940566600992E-35  -1.80410403604462E-09   6.81483116555050E-18   0.00000000000000E+00   0.00000000000000E+00
      0.00000000000000E+00   0.00000000000000E+00   0.00000000000000E+00   0.00000000000000E+00   0.00000000000000E+00
      2.28757644345286E-18   0.00000000000000E+00   0.00000000000000E+00   0.00000000000000E+00   0.00000000000000E+00
      3.07435248283763E-19   5.49325025106383E-35   3.07435248283763E-19  -1.57163786742957E-17   1.19472421441678E-01
      1.19472421123197E-01   0.00000000000000E+00   0.00000000000000E+00   1.80410403573718E-09  -1.13844585053914E-36
      1.80410403573718E-09   6.61397106529233E-18
      1.48921420281020E-01
      0.00000000000000E+00   3.25687667397852E-10   0.00000000000000E+00   0.00000000000000E+00  -1.84012991024761E-09
     -6.55026293729850E-35  -1.84012991024761E-09   6.80923816163929E-18   0.00000000000000E+00   0.00000000000000E+00
      0.00000000000000E+00   0.00000000000000E+00   0.00000000000000E+00   0.00000000000000E+00   0.00000000000000E+00
      2.18962301061946E-18   0.00000000000000E+00   0.00000000000000E+00   0.00000000000000E+00   0.00000000000000E+00
     -2.79013323292453E-19   6.59072510849149E-35  -2.79013323292453E-19  -1.57192939489999E-17   1.28072421441678E-01
      1.28072421117105E-01   0.00000000000000E+00   0.00000000000000E+00   1.84012991052663E-09  -4.04621711929952E-37
      1.84012991052663E-09   6.72043277674106E-18
      1.58921420281020E-01
      0.00000000000000E+00   3.31953173666841E-10   0.00000000000000E+00   0.00000000000000E+00  -1.87671350177962E-09
     -1.16568893058446E-34  -1.87671350177962E-09   6.80364568514305E-18   0.00000000000000E+00   0.00000000000000E+00
      0.00000000000000E+00   0.00000000000000E+00   0.00000000000000E+00   0.00000000000000E+00   0.00000000000000E+00
      2.09169755340882E-18   0.00000000000000E+00   0.00000000000000E+00   0.00000000000000E+00   0.00000000000000E+00
     -9.27271526870791E-20   1.16996192876040E-34  -9.27271526870790E-20  -1.57223089032817E-17   1.36672421441678E-01
      1.36672421110919E-01   0.00000000000000E+00   0.00000000000000E+00   1.87671350187235E-09  -4.27299817594054E-37
      1.87671350187235E-09   6.82696566472983E-18
      1.68921420281020E-01
      0.00000000000000E+00   3.38311243248766E-10   0.00000000000000E+00   0.00000000000000E+00  -1.91386728595765E-09
     -7.19253242190955E-35  -1.91386728595765E-09   6.79805367452072E-18   0.00000000000000E+00   0.00000000000000E+00
      0.00000000000000E+00   0.00000000000000E+00   0.00000000000000E+00   0.00000000000000E+00   0.00000000000000E+00
      1.99379745425043E-18   0.00000000000000E+00   0.00000000000000E+00   0.00000000000000E+00   0.00000000000000E+00
      6.82326801990469E-19   7.23097582909438E-35   6.82326801990469E-19  -1.57254151022201E-17   1.45272421441678E-01
      1.45272421104637E-01   0.00000000000000E+00   0.00000000000000E+00   1.91386728527533E-09  -3.84434071848313E-37
      1.91386728527533E-09   6.93356397344898E-18
      1.78921420281020E-01
      0.00000000000000E+00   3.44762592969936E-10   0.00000000000000E+00   0.00000000000000E+00  -1.95159595524728E-09
     -6.29619989570540E-35  -1.95159595524728E-09   6.79246207413279E-18   0.00000000000000E+00   0.00000000000000E+00
      0.00000000000000E+00   0.00000000000000E+00   0.00000000000000E+00   0.00000000000000E+00   0.00000000000000E+00
      1.89592039442673E-18   0.00000000000000E+00   0.00000000000000E+00   0.00000000000000E+00   0.00000000000000E+00
      5.67390631750839E-19   6.32209934603373E-35   5.67390631750839E-19  -1.57286049093103E-17   1.53872421441678E-01
      1.53872421098263E-01   0.00000000000000E+00   0.00000000000000E+00   1.95159595467989E-09  -2.58994503283248E-37
      1.95159595467989E-09   7.04022244075075E-18
      1.88921420281020E-01
      0.00000000000000E+00   3.51307410456026E-10   0.00000000000000E+00   0.00000000000000E+00  -1.98990149357187E-09