DF-ISE text

Info {
  version   = 1.0
  type      = xyplot
  datasets  = [
    "time"
    "source OuterVoltage" "source InnerVoltage" "source QuasiFermiPotential" "source DisplacementCurrent" "source eCurrent"
    "source hCurrent" "source TotalCurrent" "source Charge" "gate OuterVoltage" "gate InnerVoltage"
    "gate QuasiFermiPotential" "gate DisplacementCurrent" "gate eCurrent" "gate hCurrent" "gate TotalCurrent"
    "gate Charge" "substrate OuterVoltage" "substrate InnerVoltage" "substrate QuasiFermiPotential" "substrate DisplacementCurrent"
    "substrate eCurrent" "substrate hCurrent" "substrate TotalCurrent" "substrate Charge" "drain OuterVoltage"
    "drain InnerVoltage" "drain QuasiFermiPotential" "drain DisplacementCurrent" "drain eCurrent" "drain hCurrent"
    "drain TotalCurrent" "drain Charge" ]
  functions = [
    Time
    OuterVoltage InnerVoltage QuasiFermiPotential DisplacementCurrent eCurrent
    hCurrent TotalCurrent Charge OuterVoltage InnerVoltage
    QuasiFermiPotential DisplacementCurrent eCurrent hCurrent TotalCurrent
    Charge OuterVoltage InnerVoltage QuasiFermiPotential DisplacementCurrent
    eCurrent hCurrent TotalCurrent Charge OuterVoltage
    InnerVoltage QuasiFermiPotential DisplacementCurrent eCurrent hCurrent
    TotalCurrent Charge ]
}

Data {
      0.00000000000000E+00
      0.00000000000000E+00   0.00000000000000E+00   0.00000000000000E+00   0.00000000000000E+00  -3.13133758450968E-22
     -2.93293404457657E-34  -3.13133758451262E-22   6.70588610798157E-18   0.00000000000000E+00   0.00000000000000E+00
      0.00000000000000E+00   0.00000000000000E+00   0.00000000000000E+00   0.00000000000000E+00   0.00000000000000E+00
      3.77880616763271E-18   0.00000000000000E+00   0.00000000000000E+00   0.00000000000000E+00   0.00000000000000E+00
      1.93167807550036E-21   6.24898127884951E-34   1.93167807550098E-21  -1.61819377290701E-17   0.00000000000000E+00
      0.00000000000000E+00   0.00000000000000E+00   0.00000000000000E+00  -1.61854431704939E-21  -3.31604723427294E-34
     -1.61854431704972E-21   5.69724545345593E-18
      0.00000000000000E+00
      0.00000000000000E+00   1.29358784799333E-18   0.00000000000000E+00   0.00000000000000E+00  -2.42173259623932E-19
     -2.81845081639605E-34  -2.42173259623933E-19   6.70109765613887E-18   0.00000000000000E+00   0.00000000000000E+00
      0.00000000000000E+00   0.00000000000000E+00   0.00000000000000E+00   0.00000000000000E+00   0.00000000000000E+00
      3.77050285169575E-18   0.00000000000000E+00   0.00000000000000E+00   0.00000000000000E+00   0.00000000000000E+00
      3.89021435468654E-19   6.32924839585796E-34   3.89021435468655E-19  -1.61651878335116E-17   0.00000000000000E+00
      0.00000000000000E+00   0.00000000000000E+00   0.00000000000000E+00  -1.46848175844721E-19  -3.51079757946192E-34
     -1.46848175844722E-19   5.69358732567693E-18
      1.00000000000000E-03
      0.00000000000000E+00   1.74360580234991E-11   0.00000000000000E+00   0.00000000000000E+00  -1.09543931679720E-10
     -2.89838081456992E-34  -1.09543931679720E-10   6.70041269240213E-18   0.00000000000000E+00   0.00000000000000E+00
      0.00000000000000E+00   0.00000000000000E+00   0.00000000000000E+00   0.00000000000000E+00   0.00000000000000E+00
      3.75947947956552E-18   0.00000000000000E+00   0.00000000000000E+00   0.00000000000000E+00   0.00000000000000E+00
      2.13825159469554E-20   6.28520141664442E-34   2.13825159469560E-20  -1.61650567803650E-17   8.60000000000000E-04
      8.59999982349846E-04   0.00000000000000E+00   0.00000000000000E+00   1.09543931658337E-10  -3.38682060207451E-34
      1.09543931658337E-10   5.70516460839738E-18
      2.08666666666667E-03
      0.00000000000000E+00   3.52731222431329E-11   0.00000000000000E+00   0.00000000000000E+00  -2.21601097921486E-10
     -2.85566179716948E-34  -2.21601097921486E-10   6.69966844031370E-18   0.00000000000000E+00   0.00000000000000E+00
      0.00000000000000E+00   0.00000000000000E+00   0.00000000000000E+00   0.00000000000000E+00   0.00000000000000E+00
      3.74750308728524E-18   0.00000000000000E+00   0.00000000000000E+00   0.00000000000000E+00   0.00000000000000E+00
      4.66903246063520E-16   6.02401441981146E-34   4.66903246063520E-16  -1.61649201920131E-17   1.79453333333333E-03
      1.79453329762713E-03   0.00000000000000E+00   0.00000000000000E+00   2.21600631018240E-10  -3.16835262264198E-34
      2.21600631018240E-10   5.71774866441418E-18
      3.28200000000000E-03
      0.00000000000000E+00   5.35794906477078E-11   0.00000000000000E+00   0.00000000000000E+00  -3.36596717506750E-10
     -2.75050307949717E-34  -3.36596717506750E-10   6.69884985242282E-18   0.00000000000000E+00   0.00000000000000E+00
      0.00000000000000E+00   0.00000000000000E+00   0.00000000000000E+00   0.00000000000000E+00   0.00000000000000E+00
      3.73433182582525E-18   0.00000000000000E+00   0.00000000000000E+00   0.00000000000000E+00   0.00000000000000E+00
      6.16719591097650E-16   5.84728745300536E-34   6.16719591097650E-16  -1.61647768612842E-17   2.82252000000000E-03
      2.82251994576298E-03   0.00000000000000E+00   0.00000000000000E+00   3.36596100787159E-10  -3.09678437350819E-34
      3.36596100787159E-10   5.73159518303611E-18
      4.59686666666667E-03
      0.00000000000000E+00   7.21940313477020E-11   0.00000000000000E+00   0.00000000000000E+00  -4.53516467241870E-10
     -3.04080904582340E-34  -4.53516467241870E-10   6.69794951226142E-18   0.00000000000000E+00   0.00000000000000E+00
      0.00000000000000E+00   0.00000000000000E+00   0.00000000000000E+00   0.00000000000000E+00   0.00000000000000E+00
      3.71984673353069E-18   0.00000000000000E+00   0.00000000000000E+00   0.00000000000000E+00   0.00000000000000E+00
      3.64059718103432E-21   5.92676124700045E-34   3.64059718103491E-21  -1.61646274515738E-17   3.95330533333333E-03
      3.95330526025388E-03   0.00000000000000E+00   0.00000000000000E+00   4.53516467238230E-10  -2.88595220117704E-34
      4.53516467238230E-10   5.74683120578168E-18
      6.03445422222222E-03
      0.00000000000000E+00   9.08266956446426E-11   0.00000000000000E+00   0.00000000000000E+00  -5.70538630334020E-10
     -2.85418253020877E-34  -5.70538630334020E-10   6.69696526573196E-18   0.00000000000000E+00   0.00000000000000E+00
      0.00000000000000E+00   0.00000000000000E+00   0.00000000000000E+00   0.00000000000000E+00   0.00000000000000E+00
      3.70401357706232E-18   0.00000000000000E+00   0.00000000000000E+00   0.00000000000000E+00   0.00000000000000E+00
     -8.93375609732746E-22   5.67617606867456E-34  -8.93375609732178E-22  -1.61644738438436E-17   5.18963063111111E-03
      5.18963053917083E-03   0.00000000000000E+00   0.00000000000000E+00   5.70538630334913E-10  -2.82199353846580E-34
      5.70538630334913E-10   5.76349500104933E-18
      7.60621661629630E-03
      0.00000000000000E+00   1.09287796990851E-10   0.00000000000000E+00   0.00000000000000E+00  -6.86471064171847E-10
     -2.80229202022533E-34  -6.86471064171847E-10   6.69588930294184E-18   0.00000000000000E+00   0.00000000000000E+00
      0.00000000000000E+00   0.00000000000000E+00   0.00000000000000E+00   0.00000000000000E+00   0.00000000000000E+00
      3.68670720109567E-18   0.00000000000000E+00   0.00000000000000E+00   0.00000000000000E+00   0.00000000000000E+00
     -8.55177437628562E-21   5.20042851695250E-34  -8.55177437628510E-21  -1.61643173592503E-17   6.54134629001482E-03
      6.54134617938745E-03   0.00000000000000E+00   0.00000000000000E+00   6.86471064180399E-10  -2.39813649672716E-34
      6.86471064180399E-10   5.78172085521280E-18
      9.32467683381729E-03
      0.00000000000000E+00   1.27374998843084E-10   0.00000000000000E+00   0.00000000000000E+00  -8.00043657705300E-10
     -2.68275986482039E-34  -8.00043657705300E-10   6.69471308826703E-18   0.00000000000000E+00   0.00000000000000E+00
      0.00000000000000E+00   0.00000000000000E+00   0.00000000000000E+00   0.00000000000000E+00   0.00000000000000E+00
      3.66779087300203E-18   0.00000000000000E+00   0.00000000000000E+00   0.00000000000000E+00   0.00000000000000E+00
      1.22601012210687E-20   5.07899300249452E-34   1.22601012210692E-20  -1.61641597232003E-17   8.01922207708287E-03
      8.01922194814699E-03   0.00000000000000E+00   0.00000000000000E+00   8.00043657693040E-10  -2.39623313767413E-34
      8.00043657693040E-10   5.80165576193125E-18
      1.12035266716402E-02
      0.00000000000000E+00   1.44877944844635E-10   0.00000000000000E+00   0.00000000000000E+00  -9.09937511771029E-10
     -3.06643551709504E-34  -9.09937511771029E-10   6.69342729296638E-18   0.00000000000000E+00   0.00000000000000E+00
      0.00000000000000E+00   0.00000000000000E+00   0.00000000000000E+00   0.00000000000000E+00   0.00000000000000E+00
      3.64711521504987E-18   0.00000000000000E+00   0.00000000000000E+00   0.00000000000000E+00   0.00000000000000E+00
      2.40711561176779E-20   5.33565259649008E-34   2.40711561176784E-20  -1.61640031424060E-17   9.63503293761060E-03
      9.63503279095770E-03   0.00000000000000E+00   0.00000000000000E+00   9.09937511746958E-10  -2.26921707939503E-34
      9.09937511746958E-10   5.82346063438973E-18
      1.32577358276600E-02
      0.00000000000000E+00   1.61584736250889E-10   0.00000000000000E+00   0.00000000000000E+00  -1.01482563966175E-09
     -3.04343188548379E-34  -1.01482563966175E-09   6.69202172153198E-18   0.00000000000000E+00   0.00000000000000E+00
      0.00000000000000E+00   0.00000000000000E+00   0.00000000000000E+00   0.00000000000000E+00   0.00000000000000E+00
      3.62451703855388E-18   0.00000000000000E+00   0.00000000000000E+00   0.00000000000000E+00   0.00000000000000E+00
      1.92861334330259E-21   5.53699054565261E-34   1.92861334330314E-21  -1.61638503943561E-17   1.14016528117876E-02
      1.14016526482236E-02   0.00000000000000E+00   0.00000000000000E+00   1.01482563965982E-09  -2.49355866016882E-34
      1.01482563965982E-09   5.84731163427023E-18
      1.55036711715749E-02
      0.00000000000000E+00   1.77290421315168E-10   0.00000000000000E+00   0.00000000000000E+00  -1.11342632432704E-09
     -2.68738783271850E-34  -1.11342632432704E-09   6.69048523113038E-18   0.00000000000000E+00   0.00000000000000E+00
      0.00000000000000E+00   0.00000000000000E+00   0.00000000000000E+00   0.00000000000000E+00   0.00000000000000E+00
      3.59981806881701E-18   0.00000000000000E+00   0.00000000000000E+00   0.00000000000000E+00   0.00000000000000E+00
      1.72284827580245E-20   4.77875264127964E-34   1.72284827580250E-20  -1.61637049274208E-17   1.33331572075544E-02
      1.33331570280929E-02   0.00000000000000E+00   0.00000000000000E+00   1.11342632430981E-09  -2.09136480856114E-34
      1.11342632430981E-09   5.87340162747329E-18
      1.79592271475886E-02
      0.00000000000000E+00   1.91807055521430E-10   0.00000000000000E+00   0.00000000000000E+00  -1.20456668518135E-09
     -3.00439391202756E-34  -1.20456668518135E-09   6.68880564352354E-18   0.00000000000000E+00   0.00000000000000E+00
      0.00000000000000E+00   0.00000000000000E+00   0.00000000000000E+00   0.00000000000000E+00   0.00000000000000E+00
      3.57282355187234E-18   0.00000000000000E+00   0.00000000000000E+00   0.00000000000000E+00   0.00000000000000E+00
      1.20256133163487E-20   4.95804852890058E-34   1.20256133163492E-20  -1.61635709749039E-17   1.54449353469262E-02
      1.54449351527709E-02   0.00000000000000E+00   0.00000000000000E+00   1.20456668516932E-09  -1.95365461687301E-34
      1.20456668516932E-09   5.90194177950799E-18
      2.06439683480302E-02
      0.00000000000000E+00   2.04975274883546E-10   0.00000000000000E+00   0.00000000000000E+00  -1.28725558668785E-09
     -2.88361041768615E-34  -1.28725558668785E-09   6.68696964870945E-18   0.00000000000000E+00   0.00000000000000E+00
      0.00000000000000E+00   0.00000000000000E+00   0.00000000000000E+00   0.00000000000000E+00   0.00000000000000E+00
      3.54332073077995E-18   0.00000000000000E+00   0.00000000000000E+00   0.00000000000000E+00   0.00000000000000E+00
      8.86647315587564E-21   4.80516596582791E-34   8.86647315587612E-21  -1.61634536824821E-17   1.77538127793060E-02
      1.77538125718220E-02   0.00000000000000E+00   0.00000000000000E+00   1.28725558667898E-09  -1.92155554814177E-34
      1.28725558667898E-09   5.93316330299263E-18
      2.35792853938464E-02
      0.00000000000000E+00   2.16677104189778E-10   0.00000000000000E+00   0.00000000000000E+00  -1.36076392382547E-09
     -2.44996091837701E-34  -1.36076392382547E-09   6.68496269947527E-18   0.00000000000000E+00   0.00000000000000E+00
      0.00000000000000E+00   0.00000000000000E+00   0.00000000000000E+00   0.00000000000000E+00   0.00000000000000E+00
      3.51107717777835E-18   0.00000000000000E+00   0.00000000000000E+00   0.00000000000000E+00   0.00000000000000E+00
     -2.89274784492121E-20   4.23269888381176E-34  -2.89274784492116E-20  -1.61633592480252E-17   2.02781854387079E-02
      2.02781852193801E-02   0.00000000000000E+00   0.00000000000000E+00   1.36076392385440E-09  -1.78273796543474E-34
      1.36076392385440E-09   5.96731937077160E-18
      2.67885653639387E-02
      0.00000000000000E+00   2.26849357279298E-10   0.00000000000000E+00   0.00000000000000E+00  -1.42470864013894E-09
     -2.53045344791302E-34  -1.42470864013894E-09   6.68276889601104E-18   0.00000000000000E+00   0.00000000000000E+00
      0.00000000000000E+00   0.00000000000000E+00   0.00000000000000E+00   0.00000000000000E+00   0.00000000000000E+00
      3.47583896848054E-18   0.00000000000000E+00   0.00000000000000E+00   0.00000000000000E+00   0.00000000000000E+00
     -1.57039581965983E-20   4.15705981985214E-34  -1.57039581965979E-20  -1.61632950751398E-17   2.30381662129873E-02
      2.30381659833646E-02   0.00000000000000E+00   0.00000000000000E+00   1.42470864015464E-09  -1.62660637193912E-34
      1.42470864015464E-09   6.00468721064814E-18
      3.02973781312396E-02
      0.00000000000000E+00   2.35495947686545E-10   0.00000000000000E+00   0.00000000000000E+00  -1.47912972742974E-09
     -2.56571118917870E-34  -1.47912972742974E-09   6.68037085960869E-18   0.00000000000000E+00   0.00000000000000E+00
      0.00000000000000E+00   0.00000000000000E+00   0.00000000000000E+00   0.00000000000000E+00   0.00000000000000E+00
      3.43732868208037E-18   0.00000000000000E+00   0.00000000000000E+00   0.00000000000000E+00   0.00000000000000E+00
      3.81483606704558E-21   4.08191928993593E-34   3.81483606704599E-21  -1.61632699386680E-17   2.60557451928661E-02
      2.60557449544937E-02   0.00000000000000E+00   0.00000000000000E+00   1.47912972742592E-09  -1.51620810075724E-34
      1.47912972742592E-09   6.04557039697903E-18
      3.41336800901553E-02
      0.00000000000000E+00   2.42697923433348E-10   0.00000000000000E+00   0.00000000000000E+00  -1.52455294707366E-09
     -2.85010941153739E-34  -1.52455294707366E-09   6.67774959440865E-18   0.00000000000000E+00   0.00000000000000E+00
      0.00000000000000E+00   0.00000000000000E+00   0.00000000000000E+00   0.00000000000000E+00   0.00000000000000E+00
      3.39524320947217E-18   0.00000000000000E+00   0.00000000000000E+00   0.00000000000000E+00   0.00000000000000E+00
      7.78410811760192E-21   4.12962367885781E-34   7.78410811760234E-21  -1.61632941609453E-17   2.93549648775336E-02
      2.93549646318754E-02   0.00000000000000E+00   0.00000000000000E+00   1.52455294706588E-09  -1.27951426732043E-34
      1.52455294706588E-09   6.09030135706445E-18
      3.83280368985698E-02
      0.00000000000000E+00   2.48618493911315E-10   0.00000000000000E+00   0.00000000000000E+00  -1.56202020416587E-09
     -2.57518896325440E-34  -1.56202020416587E-09   6.67488433613540E-18   0.00000000000000E+00   0.00000000000000E+00
      0.00000000000000E+00   0.00000000000000E+00   0.00000000000000E+00   0.00000000000000E+00   0.00000000000000E+00
      3.34925134945542E-18   0.00000000000000E+00   0.00000000000000E+00   0.00000000000000E+00   0.00000000000000E+00
     -7.66319695247595E-19   3.74911686641955E-34  -7.66319695247594E-19  -1.61633797964560E-17   3.29621117327701E-02
      3.29621114811258E-02   0.00000000000000E+00   0.00000000000000E+00   1.56202020493219E-09  -1.17392790316514E-34
      1.56202020493219E-09   6.13924411086509E-18
      4.29138670091030E-02
      0.00000000000000E+00   2.53499035282549E-10   0.00000000000000E+00   0.00000000000000E+00  -1.59306250280774E-09
     -2.56010945729940E-34  -1.59306250280774E-09   6.67175238667914E-18   0.00000000000000E+00   0.00000000000000E+00
      0.00000000000000E+00   0.00000000000000E+00   0.00000000000000E+00   0.00000000000000E+00   0.00000000000000E+00
      3.29899117251657E-18   0.00000000000000E+00   0.00000000000000E+00   0.00000000000000E+00   0.00000000000000E+00
     -1.30828610865101E-18   3.49837607375082E-34  -1.30828610865101E-18  -1.61635408231735E-17   3.69059256278286E-02
      3.69059253712544E-02   0.00000000000000E+00   0.00000000000000E+00   1.59306250411602E-09  -9.38266616451424E-35
      1.59306250411602E-09   6.19279726397778E-18
      4.79277079299527E-02
      0.00000000000000E+00   2.57642468738200E-10   0.00000000000000E+00   0.00000000000000E+00  -1.61959395910873E-09
     -2.83221539439650E-34  -1.61959395910873E-09   6.66832893325442E-18   0.00000000000000E+00   0.00000000000000E+00
      0.00000000000000E+00   0.00000000000000E+00   0.00000000000000E+00   0.00000000000000E+00   0.00000000000000E+00
      3.24406712634820E-18   0.00000000000000E+00   0.00000000000000E+00   0.00000000000000E+00   0.00000000000000E+00
     -1.71903470511370E-18   3.58088887128406E-34  -1.71903470511370E-18  -1.61637933326048E-17   4.12178288197593E-02
      4.12178285590064E-02   0.00000000000000E+00   0.00000000000000E+00   1.61959396082776E-09  -7.48673476887565E-35
      1.61959396082776E-09   6.25139727300222E-18
      5.34095073367482E-02
      0.00000000000000E+00   2.61384068532688E-10   0.00000000000000E+00   0.00000000000000E+00  -1.64372792048117E-09
     -3.48999429335736E-34  -1.64372792048117E-09   6.66458685113987E-18   0.00000000000000E+00   0.00000000000000E+00
      0.00000000000000E+00   0.00000000000000E+00   0.00000000000000E+00   0.00000000000000E+00   0.00000000000000E+00
      3.18404686942966E-18   0.00000000000000E+00   0.00000000000000E+00   0.00000000000000E+00   0.00000000000000E+00
     -2.03082412012885E-18   4.27219943362326E-34  -2.03082412012885E-18  -1.61641557298445E-17   4.59321763096035E-02
      4.59321760450858E-02   0.00000000000000E+00   0.00000000000000E+00   1.64372792251199E-09  -7.82205140265901E-35
      1.64372792251199E-09   6.31552200927492E-18
      5.94029413548448E-02
      0.00000000000000E+00   2.65052819065126E-10   0.00000000000000E+00   0.00000000000000E+00  -1.66753647444744E-09
     -2.71426724861223E-34  -1.66753647444744E-09   6.66049648896387E-18   0.00000000000000E+00   0.00000000000000E+00
      0.00000000000000E+00   0.00000000000000E+00   0.00000000000000E+00   0.00000000000000E+00   0.00000000000000E+00
      3.11845781301893E-18   0.00000000000000E+00   0.00000000000000E+00   0.00000000000000E+00   0.00000000000000E+00
     -2.50530843028737E-18   3.30182516040967E-34  -2.50530843028737E-18  -1.61646489461220E-17   5.10865295651665E-02
      5.10865292969662E-02   0.00000000000000E+00   0.00000000000000E+00   1.66753647695275E-09  -5.87557911797448E-35
      1.66753647695275E-09   6.38569464413922E-18
      6.59557625479636E-02
      0.00000000000000E+00   2.68922631525580E-10   0.00000000000000E+00   0.00000000000000E+00  -1.69274132900750E-09
     -2.81722318383484E-34  -1.69274132900750E-09   6.65602543554928E-18   0.00000000000000E+00   0.00000000000000E+00
      0.00000000000000E+00   0.00000000000000E+00   0.00000000000000E+00   0.00000000000000E+00   0.00000000000000E+00
      3.04678335616528E-18   0.00000000000000E+00   0.00000000000000E+00   0.00000000000000E+00   0.00000000000000E+00
      1.76597552949043E-20   3.32798551845291E-34   1.76597552949047E-20  -1.61652966738858E-17   5.67219557912487E-02
      5.67219555191724E-02   0.00000000000000E+00   0.00000000000000E+00   1.69274132898984E-09  -5.10762334618070E-35
      1.69274132898984E-09   6.46248788217128E-18
      7.30764949111528E-02
      0.00000000000000E+00   2.73144949692985E-10   0.00000000000000E+00   0.00000000000000E+00  -1.72028464748598E-09
     -2.57535979650645E-34  -1.72028464748598E-09   6.65116806106629E-18   0.00000000000000E+00   0.00000000000000E+00
      0.00000000000000E+00   0.00000000000000E+00   0.00000000000000E+00   0.00000000000000E+00   0.00000000000000E+00
      2.96893625092522E-18   0.00000000000000E+00   0.00000000000000E+00   0.00000000000000E+00   0.00000000000000E+00
     -4.47384633604688E-21   2.99116000655627E-34  -4.47384633604658E-21  -1.61661201969277E-17   6.28457856235914E-02
      6.28457853472925E-02   0.00000000000000E+00   0.00000000000000E+00   1.72028464749045E-09  -4.15800210049817E-35
      1.72028464749045E-09   6.54601588493617E-18
      8.08143574124850E-02
      0.00000000000000E+00   2.77810436396450E-10   0.00000000000000E+00   0.00000000000000E+00  -1.75073681492094E-09
     -2.73771095826093E-34  -1.75073681492094E-09   6.64589098249265E-18   0.00000000000000E+00   0.00000000000000E+00
      0.00000000000000E+00   0.00000000000000E+00   0.00000000000000E+00   0.00000000000000E+00   0.00000000000000E+00
      2.88438434624926E-18   0.00000000000000E+00   0.00000000000000E+00   0.00000000000000E+00   0.00000000000000E+00
     -1.30618536635295E-20   3.05645059053944E-34  -1.30618536635292E-20  -1.61671461109032E-17   6.95003473747371E-02
      6.95003470937802E-02   0.00000000000000E+00   0.00000000000000E+00   1.75073681493400E-09  -3.18739632278514E-35
      1.75073681493400E-09   6.63687078216123E-18
      8.92228346639326E-02
      0.00000000000000E+00   2.82977357419825E-10   0.00000000000000E+00   0.00000000000000E+00  -1.78448033307829E-09
     -2.56234278504920E-34  -1.78448033307829E-09   6.64015793043241E-18   0.00000000000000E+00   0.00000000000000E+00
      0.00000000000000E+00   0.00000000000000E+00   0.00000000000000E+00   0.00000000000000E+00   0.00000000000000E+00
      2.79254938221186E-18   0.00000000000000E+00   0.00000000000000E+00   0.00000000000000E+00   0.00000000000000E+00
      4.14744035143419E-23   2.83693351662247E-34   4.14744035146256E-23  -1.61684037447427E-17   7.67316378109821E-02
      7.67316375248732E-02   0.00000000000000E+00   0.00000000000000E+00   1.78448033307825E-09  -2.74590731573272E-35
      1.78448033307825E-09   6.73569643209837E-18
      9.83600466105058E-02
      0.00000000000000E+00   2.88683956394247E-10   0.00000000000000E+00   0.00000000000000E+00  -1.82177413216405E-09
     -2.50554898631372E-34  -1.82177413216405E-09   6.63392950471223E-18   0.00000000000000E+00   0.00000000000000E+00
      0.00000000000000E+00   0.00000000000000E+00   0.00000000000000E+00   0.00000000000000E+00   0.00000000000000E+00
      2.69280305533682E-18   0.00000000000000E+00   0.00000000000000E+00   0.00000000000000E+00   0.00000000000000E+00
      2.37947727608419E-20   2.69175587028150E-34   2.37947727608422E-20  -1.61699253870463E-17   8.45896400850350E-02
      8.45896397932362E-02   0.00000000000000E+00   0.00000000000000E+00   1.82177413214025E-09  -1.86206883967788E-35
      1.82177413214025E-09   6.84319282699727E-18
      1.08289150259115E-01
      0.00000000000000E+00   2.94960242833006E-10   0.00000000000000E+00   0.00000000000000E+00  -1.86283046526133E-09
     -3.02894861895846E-34  -1.86283046526133E-09   6.62716290154160E-18   0.00000000000000E+00   0.00000000000000E+00
      0.00000000000000E+00   0.00000000000000E+00   0.00000000000000E+00   0.00000000000000E+00   0.00000000000000E+00
      2.58446267229428E-18   0.00000000000000E+00   0.00000000000000E+00   0.00000000000000E+00   0.00000000000000E+00
     -1.06455106577983E-20   3.16681402294333E-34  -1.06455106577980E-20  -1.61717464131731E-17   9.31286692228391E-02
      9.31286689247818E-02   0.00000000000000E+00   0.00000000000000E+00   1.86283046527198E-09  -1.37865403984862E-35
      1.86283046527198E-09   6.96012083933720E-18
      1.18289150259115E-01
      0.00000000000000E+00   3.01355063744649E-10   0.00000000000000E+00   0.00000000000000E+00  -1.90471199021364E-09
     -2.39803105371555E-34  -1.90471199021364E-09   6.62034954535428E-18   0.00000000000000E+00   0.00000000000000E+00
      0.00000000000000E+00   0.00000000000000E+00   0.00000000000000E+00   0.00000000000000E+00   0.00000000000000E+00
      2.47539651748017E-18   0.00000000000000E+00   0.00000000000000E+00   0.00000000000000E+00   0.00000000000000E+00
     -4.82012268916613E-20   2.50803913243655E-34  -4.82012268916611E-20  -1.61737412510553E-17   1.01728669222839E-01
      1.01728668918411E-01   0.00000000000000E+00   0.00000000000000E+00   1.90471199026184E-09  -1.10008078721007E-35
      1.90471199026184E-09   7.07799518822082E-18
      1.28289150259115E-01
      0.00000000000000E+00   3.07838190999539E-10   0.00000000000000E+00   0.00000000000000E+00  -1.94722304765628E-09
     -2.24517777006777E-34  -1.94722304765628E-09   6.61353762326443E-18   0.00000000000000E+00   0.00000000000000E+00
      0.00000000000000E+00   0.00000000000000E+00   0.00000000000000E+00   0.00000000000000E+00   0.00000000000000E+00
      2.36637336762666E-18   0.00000000000000E+00   0.00000000000000E+00   0.00000000000000E+00   0.00000000000000E+00
     -1.84282292703648E-20   2.31575235640230E-34  -1.84282292703645E-20  -1.61758830505198E-17   1.10328669222839E-01
      1.10328668911963E-01   0.00000000000000E+00   0.00000000000000E+00   1.94722304767471E-09  -7.05745863345310E-36
      1.94722304767471E-09   7.19597205962872E-18
      1.38289150259115E-01
      0.00000000000000E+00   3.14424022230424E-10   0.00000000000000E+00   0.00000000000000E+00  -1.99045538893168E-09
     -2.75774610594197E-34  -1.99045538893168E-09   6.60672701997566E-18   0.00000000000000E+00   0.00000000000000E+00
      0.00000000000000E+00   0.00000000000000E+00   0.00000000000000E+00   0.00000000000000E+00   0.00000000000000E+00
      2.25738890432117E-18   0.00000000000000E+00   0.00000000000000E+00   0.00000000000000E+00   0.00000000000000E+00
     -3.06719180794493E-20   2.81452826736630E-34  -3.06719180794491E-20  -1.61781588900415E-17   1.18928669222839E-01
      1.18928668905419E-01   0.00000000000000E+00   0.00000000000000E+00   1.99045538896235E-09  -5.67821614243384E-36
      1.99045538896235E-09   7.31404296574475E-18
      1.48289150259115E-01
      0.00000000000000E+00   3.21121402128618E-10   0.00000000000000E+00   0.00000000000000E+00  -2.03446575765595E-09
     -2.48880238291282E-34  -2.03446575765595E-09   6.59991763813386E-18   0.00000000000000E+00   0.00000000000000E+00
      0.00000000000000E+00   0.00000000000000E+00   0.00000000000000E+00   0.00000000000000E+00   0.00000000000000E+00
      2.14843940751757E-18   0.00000000000000E+00   0.00000000000000E+00   0.00000000000000E+00   0.00000000000000E+00
     -9.83932894478739E-21   2.53037404022700E-34  -9.83932894478713E-21  -1.61805572318385E-17   1.27528669222839E-01
      1.27528668898762E-01   0.00000000000000E+00   0.00000000000000E+00   2.03446575766579E-09  -4.15716573141800E-36
      2.03446575766579E-09   7.43220018618708E-18
      1.58289150259115E-01
      0.00000000000000E+00   3.27934748727816E-10   0.00000000000000E+00   0.00000000000000E+00  -2.07928240424495E-09
     -2.72771414825407E-34  -2.07928240424495E-09   6.59310939211964E-18   0.00000000000000E+00   0.00000000000000E+00
      0.00000000000000E+00   0.00000000000000E+00   0.00000000000000E+00   0.00000000000000E+00   0.00000000000000E+00
      2.03952164389381E-18   0.00000000000000E+00   0.00000000000000E+00   0.00000000000000E+00   0.00000000000000E+00
     -1.86349101074111E-20   2.75849890458385E-34  -1.86349101074109E-20  -1.61830677187079E-17   1.36128669222839E-01
      1.36128668891983E-01   0.00000000000000E+00   0.00000000000000E+00   2.07928240426359E-09  -3.07847563297859E-36
      2.07928240426359E-09   7.55043668269443E-18
      1.68289150259115E-01
      0.00000000000000E+00   3.34865855371973E-10   0.00000000000000E+00   0.00000000000000E+00  -2.12491712233793E-09
     -2.57696381420764E-34  -2.12491712233793E-09   6.58630220470981E-18   0.00000000000000E+00   0.00000000000000E+00
      0.00000000000000E+00   0.00000000000000E+00   0.00000000000000E+00   0.00000000000000E+00   0.00000000000000E+00
      1.93063277444448E-18   0.00000000000000E+00   0.00000000000000E+00   0.00000000000000E+00   0.00000000000000E+00
      6.43114009915978E-22   2.60028013511797E-34   6.43114009916238E-22  -1.61856810047260E-17   1.44728669222839E-01
      1.44728668885083E-01   0.00000000000000E+00   0.00000000000000E+00   2.12491712233729E-09  -2.33163209103234E-36
      2.12491712233729E-09   7.66874602557170E-18
      1.78289150259115E-01
      0.00000000000000E+00   3.41915295551701E-10   0.00000000000000E+00   0.00000000000000E+00  -2.17137458142350E-09
     -2.63511558833877E-34  -2.17137458142350E-09   6.57949600607905E-18   0.00000000000000E+00   0.00000000000000E+00
      0.00000000000000E+00   0.00000000000000E+00   0.00000000000000E+00   0.00000000000000E+00   0.00000000000000E+00
      1.82177028483666E-18   0.00000000000000E+00   0.00000000000000E+00   0.00000000000000E+00   0.00000000000000E+00
     -6.40960009211540E-21   2.65424215326826E-34  -6.40960009211513E-21  -1.61883886223456E-17   1.53328669222839E-01
      1.53328668878062E-01   0.00000000000000E+00   0.00000000000000E+00   2.17137458142991E-09  -1.91265649294829E-36
      2.17137458142991E-09   7.78712233142986E-18
      1.88289150259115E-01
      0.00000000000000E+00   3.49083452600199E-10   0.00000000000000E+00   0.00000000000000E+00  -2.21865871913093E-09