DF-ISE text

Info {
  version   = 1.0
  type      = xyplot
  datasets  = [
    "time"
    "source OuterVoltage" "source InnerVoltage" "source QuasiFermiPotential" "source DisplacementCurrent" "source eCurrent"
    "source hCurrent" "source TotalCurrent" "source Charge" "gate OuterVoltage" "gate InnerVoltage"
    "gate QuasiFermiPotential" "gate DisplacementCurrent" "gate eCurrent" "gate hCurrent" "gate TotalCurrent"
    "gate Charge" "substrate OuterVoltage" "substrate InnerVoltage" "substrate QuasiFermiPotential" "substrate DisplacementCurrent"
    "substrate eCurrent" "substrate hCurrent" "substrate TotalCurrent" "substrate Charge" "drain OuterVoltage"
    "drain InnerVoltage" "drain QuasiFermiPotential" "drain DisplacementCurrent" "drain eCurrent" "drain hCurrent"
    "drain TotalCurrent" "drain Charge" ]
  functions = [
    Time
    OuterVoltage InnerVoltage QuasiFermiPotential DisplacementCurrent eCurrent
    hCurrent TotalCurrent Charge OuterVoltage InnerVoltage
    QuasiFermiPotential DisplacementCurrent eCurrent hCurrent TotalCurrent
    Charge OuterVoltage InnerVoltage QuasiFermiPotential DisplacementCurrent
    eCurrent hCurrent TotalCurrent Charge OuterVoltage
    InnerVoltage QuasiFermiPotential DisplacementCurrent eCurrent hCurrent
    TotalCurrent Charge ]
}

Data {
      0.00000000000000E+00
      0.00000000000000E+00   0.00000000000000E+00   0.00000000000000E+00   0.00000000000000E+00  -4.86094974187725E-22
      8.67009680283358E-34  -4.86094974186858E-22   6.53996350003602E-18   0.00000000000000E+00   0.00000000000000E+00
      0.00000000000000E+00   0.00000000000000E+00   0.00000000000000E+00   0.00000000000000E+00   0.00000000000000E+00
      2.55997477352964E-18   0.00000000000000E+00   0.00000000000000E+00   0.00000000000000E+00   0.00000000000000E+00
     -3.11166300747954E-20  -2.27163675021647E-33  -3.11166300747977E-20  -1.64152594154180E-17   0.00000000000000E+00
      0.00000000000000E+00   0.00000000000000E+00   0.00000000000000E+00   3.16027250489832E-20   1.40462706993311E-33
      3.16027250489846E-20   7.31532114185232E-18
      0.00000000000000E+00
      0.00000000000000E+00   1.28155447266316E-18   0.00000000000000E+00   0.00000000000000E+00  -2.81171596176933E-19
      9.01044976395119E-34  -2.81171596176932E-19   6.53497748876469E-18   0.00000000000000E+00   0.00000000000000E+00
      0.00000000000000E+00   0.00000000000000E+00   0.00000000000000E+00   0.00000000000000E+00   0.00000000000000E+00
      2.55247972954659E-18   0.00000000000000E+00   0.00000000000000E+00   0.00000000000000E+00   0.00000000000000E+00
      1.43760919741906E-18  -2.30069649448008E-33   1.43760919741906E-18  -1.63981018668601E-17   0.00000000000000E+00
     -3.84466341798949E-18   0.00000000000000E+00   0.00000000000000E+00  -1.15643760124213E-18   1.39965151808496E-33
     -1.15643760124212E-18   7.31064464854882E-18
      1.00000000000000E-03
      0.00000000000000E+00   2.07172823814974E-11   0.00000000000000E+00   0.00000000000000E+00  -1.29974991556825E-10
      8.77774121411615E-34  -1.29974991556825E-10   6.53412434643863E-18   0.00000000000000E+00   0.00000000000000E+00
      0.00000000000000E+00   0.00000000000000E+00   0.00000000000000E+00   0.00000000000000E+00   0.00000000000000E+00
      2.53863544662742E-18   0.00000000000000E+00   0.00000000000000E+00   0.00000000000000E+00   0.00000000000000E+00
     -2.96520400317112E-18  -2.28783081347782E-33  -2.96520400317112E-18  -1.63977626959749E-17   8.60000000000000E-04
      8.59999979073060E-04   0.00000000000000E+00   0.00000000000000E+00   1.29974994522029E-10   1.41005669206620E-33
      1.29974994522029E-10   7.32500290290883E-18
      2.08666666666667E-03
      0.00000000000000E+00   4.18746061416855E-11   0.00000000000000E+00   0.00000000000000E+00  -2.62705053280897E-10
      8.87780582505557E-34  -2.62705053280897E-10   6.53319735369941E-18   0.00000000000000E+00   0.00000000000000E+00
      0.00000000000000E+00   0.00000000000000E+00   0.00000000000000E+00   0.00000000000000E+00   0.00000000000000E+00
      2.52359385308258E-18   0.00000000000000E+00   0.00000000000000E+00   0.00000000000000E+00   0.00000000000000E+00
     -1.80840180032459E-19  -2.22696490537030E-33  -1.80840180032461E-19  -1.63973996427810E-17   1.79453333333333E-03
      1.79453329103534E-03   0.00000000000000E+00   0.00000000000000E+00   2.62705053461737E-10   1.33918432286474E-33
      2.62705053461737E-10   7.34060843599911E-18
      3.27475555555556E-03
      0.00000000000000E+00   6.34166969817889E-11   0.00000000000000E+00   0.00000000000000E+00  -3.97841125340638E-10
      8.91912354120136E-34  -3.97841125340638E-10   6.53218394615346E-18   0.00000000000000E+00   0.00000000000000E+00
      0.00000000000000E+00   0.00000000000000E+00   0.00000000000000E+00   0.00000000000000E+00   0.00000000000000E+00
      2.50715135035240E-18   0.00000000000000E+00   0.00000000000000E+00   0.00000000000000E+00   0.00000000000000E+00
      2.80974926220662E-18  -2.13976383941055E-33   2.80974926220662E-18  -1.63970091944924E-17   2.81628977777778E-03
      2.81628971372043E-03   0.00000000000000E+00   0.00000000000000E+00   3.97841122530888E-10   1.24785148529042E-33
      3.97841122530888E-10   7.35767389798649E-18
      4.57373274074074E-03
      0.00000000000000E+00   8.51526502757113E-11   0.00000000000000E+00   0.00000000000000E+00  -5.34184393918928E-10
      8.68322654400690E-34  -5.34184393918928E-10   6.53107607709696E-18   0.00000000000000E+00   0.00000000000000E+00
      0.00000000000000E+00   0.00000000000000E+00   0.00000000000000E+00   0.00000000000000E+00   0.00000000000000E+00
      2.48917771762749E-18   0.00000000000000E+00   0.00000000000000E+00   0.00000000000000E+00   0.00000000000000E+00
     -5.84611889691034E-18  -2.12699628205686E-33  -5.84611889691034E-18  -1.63965899591073E-17   3.93341015703704E-03
      3.93341007102487E-03   0.00000000000000E+00   0.00000000000000E+00   5.34184399765047E-10   1.25867362765617E-33
      5.34184399765047E-10   7.37633616438280E-18
      5.99394779654321E-03
      0.00000000000000E+00   1.06875030199029E-10   0.00000000000000E+00   0.00000000000000E+00  -6.70432890977031E-10
      9.05109915659135E-34  -6.70432890977031E-10   6.52986495175984E-18   0.00000000000000E+00   0.00000000000000E+00
      0.00000000000000E+00   0.00000000000000E+00   0.00000000000000E+00   0.00000000000000E+00   0.00000000000000E+00
      2.46953066988395E-18   0.00000000000000E+00   0.00000000000000E+00   0.00000000000000E+00   0.00000000000000E+00
      5.84787743915717E-20  -2.11119827140138E-33   5.84787743915696E-20  -1.63961406130017E-17   5.15479510502716E-03
      5.15479499707430E-03   0.00000000000000E+00   0.00000000000000E+00   6.70432890918552E-10   1.20608835574225E-33
      6.70432890918552E-10   7.39674499135798E-18
      7.54671625755391E-03
      0.00000000000000E+00   1.28359806932821E-10   0.00000000000000E+00   0.00000000000000E+00  -8.05181807907060E-10
      8.77544062333904E-34  -8.05181807907060E-10   6.52854095791667E-18   0.00000000000000E+00   0.00000000000000E+00
      0.00000000000000E+00   0.00000000000000E+00   0.00000000000000E+00   0.00000000000000E+00   0.00000000000000E+00
      2.44805474545180E-18   0.00000000000000E+00   0.00000000000000E+00   0.00000000000000E+00   0.00000000000000E+00
     -7.68601575734952E-18  -1.95567106218541E-33  -7.68601575734952E-18  -1.63956599377469E-17   6.49017598149636E-03
      6.49017585184320E-03   0.00000000000000E+00   0.00000000000000E+00   8.05181815593076E-10   1.07812699985151E-33
      8.05181815593076E-10   7.41906423437845E-18
      9.24440977492561E-03
      0.00000000000000E+00   1.49369889909351E-10   0.00000000000000E+00   0.00000000000000E+00  -9.36945207752499E-10
      8.44250601335100E-34  -9.36945207752499E-10   6.52709359003561E-18   0.00000000000000E+00   0.00000000000000E+00
      0.00000000000000E+00   0.00000000000000E+00   0.00000000000000E+00   0.00000000000000E+00   0.00000000000000E+00
      2.42458009131915E-18   0.00000000000000E+00   0.00000000000000E+00   0.00000000000000E+00   0.00000000000000E+00
     -1.35470999228139E-18  -1.90357645392007E-33  -1.35470999228139E-18  -1.63951468639841E-17   7.95019240643603E-03
      7.95019225556248E-03   0.00000000000000E+00   0.00000000000000E+00   9.36945209107209E-10   1.05932585258497E-33
      9.36945209107209E-10   7.44347318262929E-18
      1.11005546872520E-02
      0.00000000000000E+00   1.69660839273167E-10   0.00000000000000E+00   0.00000000000000E+00  -1.06419241792882E-09
      8.78686558590239E-34  -1.06419241792882E-09   6.52551136637201E-18   0.00000000000000E+00   0.00000000000000E+00
      0.00000000000000E+00   0.00000000000000E+00   0.00000000000000E+00   0.00000000000000E+00   0.00000000000000E+00
      2.39892113683568E-18   0.00000000000000E+00   0.00000000000000E+00   0.00000000000000E+00   0.00000000000000E+00
      3.04972729295361E-18  -1.88856476926014E-33   3.04972729295361E-18  -1.63946005233957E-17   9.54647703103672E-03
      9.54647685966964E-03   0.00000000000000E+00   0.00000000000000E+00   1.06419241487910E-09   1.00987821066991E-33
      1.06419241487910E-09   7.47016802018805E-18
      1.31299397913955E-02
      0.00000000000000E+00   1.88988788023665E-10   0.00000000000000E+00   0.00000000000000E+00  -1.18539785377230E-09
      8.96825129864308E-34  -1.18539785377230E-09   6.52378173835454E-18   0.00000000000000E+00   0.00000000000000E+00
      0.00000000000000E+00   0.00000000000000E+00   0.00000000000000E+00   0.00000000000000E+00   0.00000000000000E+00
      2.37087514556680E-18   0.00000000000000E+00   0.00000000000000E+00   0.00000000000000E+00   0.00000000000000E+00
      6.12805323053325E-20  -1.82968225872241E-33   6.12805323053307E-20  -1.63940203098487E-17   1.12917482206002E-02
      1.12917480297127E-02   0.00000000000000E+00   0.00000000000000E+00   1.18539785371102E-09   9.32857128858095E-34
      1.18539785371102E-09   7.49936342592732E-18
      1.53487341719258E-02
      0.00000000000000E+00   2.07120761946076E-10   0.00000000000000E+00   0.00000000000000E+00  -1.29910580853409E-09
      8.76848969289031E-34  -1.29910580853409E-09   6.52189099148210E-18   0.00000000000000E+00   0.00000000000000E+00
      0.00000000000000E+00   0.00000000000000E+00   0.00000000000000E+00   0.00000000000000E+00   0.00000000000000E+00
      2.34022063293604E-18   0.00000000000000E+00   0.00000000000000E+00   0.00000000000000E+00   0.00000000000000E+00
      4.29518009585938E-18  -1.72548546215865E-33   4.29518009585938E-18  -1.63934059491487E-17   1.31999113878562E-02
      1.31999111786570E-02   0.00000000000000E+00   0.00000000000000E+00   1.29910580423891E-09   8.48636492869618E-34
      1.29910580423891E-09   7.53129432473048E-18
      1.77746160279722E-02
      0.00000000000000E+00   2.23846519038865E-10   0.00000000000000E+00   0.00000000000000E+00  -1.40400511631660E-09
      8.99925263122548E-34  -1.40400511631660E-09   6.51982413700016E-18   0.00000000000000E+00   0.00000000000000E+00
      0.00000000000000E+00   0.00000000000000E+00   0.00000000000000E+00   0.00000000000000E+00   0.00000000000000E+00
      2.30671563856866E-18   0.00000000000000E+00   0.00000000000000E+00   0.00000000000000E+00   0.00000000000000E+00
     -2.28783089421054E-19  -1.68474980116133E-33  -2.28783089421055E-19  -1.63927575801358E-17   1.52861697840561E-02
      1.52861695579663E-02   0.00000000000000E+00   0.00000000000000E+00   1.40400511654538E-09   7.84824538038779E-34
      1.40400511654538E-09   7.56621780456694E-18
      2.04269135239163E-02
      0.00000000000000E+00   2.38992340748599E-10   0.00000000000000E+00   0.00000000000000E+00  -1.49901542809316E-09
      8.92762597376276E-34  -1.49901542809316E-09   6.51756479343018E-18   0.00000000000000E+00   0.00000000000000E+00
      0.00000000000000E+00   0.00000000000000E+00   0.00000000000000E+00   0.00000000000000E+00   0.00000000000000E+00
      2.27009583855908E-18   0.00000000000000E+00   0.00000000000000E+00   0.00000000000000E+00   0.00000000000000E+00
     -5.58658383319107E-18  -1.61803826304177E-33  -5.58658383319107E-18  -1.63920758464838E-17   1.75671456305680E-02
      1.75671453891842E-02   0.00000000000000E+00   0.00000000000000E+00   1.49901543367975E-09   7.25275665665489E-34
      1.49901543367975E-09   7.60441521449450E-18
      2.33267587861485E-02
      0.00000000000000E+00   2.52436010778623E-10   0.00000000000000E+00   0.00000000000000E+00  -1.58338120124285E-09
      8.56613611646222E-34  -1.58338120124285E-09   6.51509505692900E-18   0.00000000000000E+00   0.00000000000000E+00
      0.00000000000000E+00   0.00000000000000E+00   0.00000000000000E+00   0.00000000000000E+00   0.00000000000000E+00
      2.23007248156225E-18   0.00000000000000E+00   0.00000000000000E+00   0.00000000000000E+00   0.00000000000000E+00
     -5.04843462799251E-19  -1.50222471954935E-33  -5.04843462799253E-19  -1.63913619978493E-17   2.00610125560877E-02
      2.00610123011302E-02   0.00000000000000E+00   0.00000000000000E+00   1.58338120174770E-09   6.45611107903129E-34
      1.58338120174770E-09   7.64619445935800E-18
      2.64972562728556E-02
      0.00000000000000E+00   2.64121837470589E-10   0.00000000000000E+00   0.00000000000000E+00  -1.65676597700336E-09
      8.63706063188044E-34  -1.65676597700336E-09   6.51239535951154E-18   0.00000000000000E+00   0.00000000000000E+00
      0.00000000000000E+00   0.00000000000000E+00   0.00000000000000E+00   0.00000000000000E+00   0.00000000000000E+00
      2.18633013360612E-18   0.00000000000000E+00   0.00000000000000E+00   0.00000000000000E+00   0.00000000000000E+00
      2.65969763029769E-18  -1.43746481993600E-33   2.65969763029769E-18  -1.63906180030768E-17   2.27876403946559E-02
      2.27876401279016E-02   0.00000000000000E+00   0.00000000000000E+00   1.65676597434366E-09   5.73758756747959E-34
      1.65676597434366E-09   7.69189250995915E-18
      2.99636668583222E-02
      0.00000000000000E+00   2.74074638126859E-10   0.00000000000000E+00   0.00000000000000E+00  -1.71933976337412E-09
      8.51201071435255E-34  -1.71933976337412E-09   6.50944431387734E-18   0.00000000000000E+00   0.00000000000000E+00
      0.00000000000000E+00   0.00000000000000E+00   0.00000000000000E+00   0.00000000000000E+00   0.00000000000000E+00
      2.13852421211269E-18   0.00000000000000E+00   0.00000000000000E+00   0.00000000000000E+00   0.00000000000000E+00
      2.13961612491844E-18  -1.37827877406456E-33   2.13961612491843E-18  -1.63898466734019E-17   2.57687534981571E-02
      2.57687532213583E-02   0.00000000000000E+00   0.00000000000000E+00   1.71933976123451E-09   5.27077702629310E-34
      1.71933976123451E-09   7.74187814741192E-18
      3.37536090984323E-02
      0.00000000000000E+00   2.82410530553538E-10   0.00000000000000E+00   0.00000000000000E+00  -1.77184587398309E-09
      8.94346781057310E-34  -1.77184587398309E-09   6.50621854365476E-18   0.00000000000000E+00   0.00000000000000E+00
      0.00000000000000E+00   0.00000000000000E+00   0.00000000000000E+00   0.00000000000000E+00   0.00000000000000E+00
      2.08627828784332E-18   0.00000000000000E+00   0.00000000000000E+00   0.00000000000000E+00   0.00000000000000E+00
      1.41584268789262E-17  -1.36496486866811E-33   1.41584268789262E-17  -1.63890517933574E-17   2.90281038246517E-02
      2.90281035394442E-02   0.00000000000000E+00   0.00000000000000E+00   1.77184585982466E-09   4.70618087610804E-34
      1.77184585982466E-09   7.79655496185931E-18
      3.78972792809526E-02
      0.00000000000000E+00   2.89340882811356E-10   0.00000000000000E+00   0.00000000000000E+00  -1.81562508185139E-09
      8.66642447400176E-34  -1.81562508185139E-09   6.50269249766859E-18   0.00000000000000E+00   0.00000000000000E+00
      0.00000000000000E+00   0.00000000000000E+00   0.00000000000000E+00   0.00000000000000E+00   0.00000000000000E+00
      2.02918113362644E-18   0.00000000000000E+00   0.00000000000000E+00   0.00000000000000E+00   0.00000000000000E+00
      1.72869580018923E-17  -1.28456319287183E-33   1.72869580018923E-17  -1.63882382592180E-17   3.25916601816192E-02
      3.25916598894261E-02   0.00000000000000E+00   0.00000000000000E+00   1.81562506456443E-09   4.17920745471657E-34
      1.81562506456443E-09   7.85636462792299E-18
      4.24276920138415E-02
      0.00000000000000E+00   2.95167629561259E-10   0.00000000000000E+00   0.00000000000000E+00  -1.85258488632899E-09
      8.69017789330781E-34  -1.85258488632899E-09   6.49883824664432E-18   0.00000000000000E+00   0.00000000000000E+00
      0.00000000000000E+00   0.00000000000000E+00   0.00000000000000E+00   0.00000000000000E+00   0.00000000000000E+00
      1.96678349077374E-18   0.00000000000000E+00   0.00000000000000E+00   0.00000000000000E+00   0.00000000000000E+00
      7.75377901345408E-18  -1.21957925686602E-33   7.75377901345408E-18  -1.63874122161994E-17   3.64878151319037E-02
      3.64878148338444E-02   0.00000000000000E+00   0.00000000000000E+00   1.85258487857521E-09   3.50561467535236E-34
      1.85258487857521E-09   7.92179047878136E-18
      4.73809432684667E-02
      0.00000000000000E+00   3.00263052125118E-10   0.00000000000000E+00   0.00000000000000E+00  -1.88507260064569E-09
      8.80496242305146E-34  -1.88507260064569E-09   6.49462526159408E-18   0.00000000000000E+00   0.00000000000000E+00
      0.00000000000000E+00   0.00000000000000E+00   0.00000000000000E+00   0.00000000000000E+00   0.00000000000000E+00
      1.89859454313048E-18   0.00000000000000E+00   0.00000000000000E+00   0.00000000000000E+00   0.00000000000000E+00
      1.59877860521440E-18  -1.18341974254770E-33   1.59877860521439E-18  -1.63865812118423E-17   4.07476112108814E-02
      4.07476109077008E-02   0.00000000000000E+00   0.00000000000000E+00   1.88507259904691E-09   3.02923500242550E-34
      1.88507259904691E-09   7.99336140711774E-18
      5.27964979735236E-02
      0.00000000000000E+00   3.05032157599821E-10   0.00000000000000E+00   0.00000000000000E+00  -1.91563807667322E-09
      8.46333553372375E-34  -1.91563807667322E-09   6.49002017237792E-18   0.00000000000000E+00   0.00000000000000E+00
      0.00000000000000E+00   0.00000000000000E+00   0.00000000000000E+00   0.00000000000000E+00   0.00000000000000E+00
      1.82407806498421E-18   0.00000000000000E+00   0.00000000000000E+00   0.00000000000000E+00   0.00000000000000E+00
     -6.74107666147282E-17  -1.10660935446464E-33  -6.74107666147282E-17  -1.63857543547081E-17   4.54049882572303E-02
      4.54049879492659E-02   0.00000000000000E+00   0.00000000000000E+00   1.91563814408398E-09   2.60275801092268E-34
      1.91563814408398E-09   8.07165611734589E-18
      5.87175044510525E-02
      0.00000000000000E+00   3.09852441952390E-10   0.00000000000000E+00   0.00000000000000E+00  -1.94665537067034E-09
      8.46501604187199E-34  -1.94665537067034E-09   6.48498650490867E-18   0.00000000000000E+00   0.00000000000000E+00
      0.00000000000000E+00   0.00000000000000E+00   0.00000000000000E+00   0.00000000000000E+00   0.00000000000000E+00
      1.74264822192166E-18   0.00000000000000E+00   0.00000000000000E+00   0.00000000000000E+00   0.00000000000000E+00
     -1.71682467303619E-16  -1.04994425284478E-33  -1.71682467303619E-16  -1.63849424832327E-17   5.04970538279052E-02
      5.04970535151143E-02   0.00000000000000E+00   0.00000000000000E+00   1.94665554235281E-09   2.03442648657577E-34
      1.94665554235281E-09   8.15730775640239E-18
      6.51911381998174E-02
      0.00000000000000E+00   3.15021406519663E-10   0.00000000000000E+00   0.00000000000000E+00  -1.97998839511657E-09
      8.92748881667009E-34  -1.97998839511657E-09   6.47948439386697E-18   0.00000000000000E+00   0.00000000000000E+00
      0.00000000000000E+00   0.00000000000000E+00   0.00000000000000E+00   0.00000000000000E+00   0.00000000000000E+00
      1.65366500286330E-18   0.00000000000000E+00   0.00000000000000E+00   0.00000000000000E+00   0.00000000000000E+00
      2.53345608922032E-18  -1.06004370022396E-33   2.53345608922032E-18  -1.63841583524712E-17   5.60643788518430E-02
      5.60643785338843E-02   0.00000000000000E+00   0.00000000000000E+00   1.97998839258312E-09   1.67294818556954E-34
      1.97998839258312E-09   8.25100895574092E-18
      7.22258202068086E-02
      0.00000000000000E+00   3.20717444965790E-10   0.00000000000000E+00   0.00000000000000E+00  -2.01675271715944E-09
      8.83162999681075E-34  -2.01675271715944E-09   6.47350693499378E-18   0.00000000000000E+00   0.00000000000000E+00
      0.00000000000000E+00   0.00000000000000E+00   0.00000000000000E+00   0.00000000000000E+00   0.00000000000000E+00
      1.55702199697486E-18   0.00000000000000E+00   0.00000000000000E+00   0.00000000000000E+00   0.00000000000000E+00
      2.94778117654007E-18  -1.02112630640281E-33   2.94778117654007E-18  -1.63834210148366E-17   6.21142053778554E-02
      6.21142050542092E-02   0.00000000000000E+00   0.00000000000000E+00   2.01675271421166E-09   1.37963306721734E-34
      2.01675271421166E-09   8.35289208286797E-18
      7.98701746544057E-02
      0.00000000000000E+00   3.27078447425810E-10   0.00000000000000E+00   0.00000000000000E+00  -2.05783063806107E-09
      8.79470504755120E-34  -2.05783063806107E-09   6.46701308097810E-18   0.00000000000000E+00   0.00000000000000E+00
      0.00000000000000E+00   0.00000000000000E+00   0.00000000000000E+00   0.00000000000000E+00   0.00000000000000E+00
      1.45206117283380E-18   0.00000000000000E+00   0.00000000000000E+00   0.00000000000000E+00   0.00000000000000E+00
      8.65296420089209E-19  -9.87753752948606E-34   8.65296420089208E-19  -1.63827461887080E-17   6.86883502027889E-02
      6.86883498727978E-02   0.00000000000000E+00   0.00000000000000E+00   2.05783063719578E-09   1.08283248193485E-34
      2.05783063719578E-09   8.46367193489607E-18
      8.81770398207946E-02
      0.00000000000000E+00   3.34171047470162E-10   0.00000000000000E+00   0.00000000000000E+00  -2.10365040028249E-09
      8.42782055047943E-34  -2.10365040028249E-09   6.45995825289369E-18   0.00000000000000E+00   0.00000000000000E+00
      0.00000000000000E+00   0.00000000000000E+00   0.00000000000000E+00   0.00000000000000E+00   0.00000000000000E+00
      1.33806826556223E-18   0.00000000000000E+00   0.00000000000000E+00   0.00000000000000E+00   0.00000000000000E+00
      6.89086436528886E-18  -9.20873679949076E-34   6.89086436528886E-18  -1.63821517711366E-17   7.58322542458833E-02
      7.58322539088201E-02   0.00000000000000E+00   0.00000000000000E+00   2.10365039339163E-09   7.80916249011335E-35
      2.10365039339163E-09   8.58412525268065E-18
      9.72038333016038E-02
      0.00000000000000E+00   3.42017885894528E-10   0.00000000000000E+00   0.00000000000000E+00  -2.15436831736877E-09
      8.93962696663870E-34  -2.15436831736877E-09   6.45229403394728E-18   0.00000000000000E+00   0.00000000000000E+00
      0.00000000000000E+00   0.00000000000000E+00   0.00000000000000E+00   0.00000000000000E+00   0.00000000000000E+00
      1.21426805818552E-18   0.00000000000000E+00   0.00000000000000E+00   0.00000000000000E+00   0.00000000000000E+00
      7.78935535096570E-18  -9.53859883609618E-34   7.78935535096570E-18  -1.63816580079857E-17   8.35952966393793E-02
      8.35952962944931E-02   0.00000000000000E+00   0.00000000000000E+00   2.15436830957942E-09   5.98971869457468E-35
      2.15436830957942E-09   8.71509591585291E-18
      1.07012948884083E-01
      0.00000000000000E+00   3.50668037691514E-10   0.00000000000000E+00   0.00000000000000E+00  -2.21032432407818E-09
      8.13934652550021E-34  -2.21032432407818E-09   6.44396782789134E-18   0.00000000000000E+00   0.00000000000000E+00
      0.00000000000000E+00   0.00000000000000E+00   0.00000000000000E+00   0.00000000000000E+00   0.00000000000000E+00
      1.07981915979390E-18   0.00000000000000E+00   0.00000000000000E+00   0.00000000000000E+00   0.00000000000000E+00
     -1.96664723099377E-18  -8.58975333174019E-34  -1.96664723099377E-18  -1.63812875121712E-17   9.20311360403115E-02
      9.20311356868079E-02   0.00000000000000E+00   0.00000000000000E+00   2.21032432604483E-09   4.50406806239986E-35
      2.21032432604483E-09   8.85750052448597E-18
      1.17012948884083E-01
      0.00000000000000E+00   3.59629391497022E-10   0.00000000000000E+00   0.00000000000000E+00  -2.26834886893910E-09
      8.71514324788311E-34  -2.26834886893910E-09   6.43548185112172E-18   0.00000000000000E+00   0.00000000000000E+00
      0.00000000000000E+00   0.00000000000000E+00   0.00000000000000E+00   0.00000000000000E+00   0.00000000000000E+00
      9.42836102790077E-19   0.00000000000000E+00   0.00000000000000E+00   0.00000000000000E+00   0.00000000000000E+00
      7.96547708215866E-19  -9.03407073527409E-34   7.96547708215865E-19  -1.63810739638614E-17   1.00631136040312E-01
      1.00631135677891E-01   0.00000000000000E+00   0.00000000000000E+00   2.26834886814256E-09   3.18927487390991E-35
      2.26834886814256E-09   9.00275600994953E-18
      1.27012948884083E-01
      0.00000000000000E+00   3.68760497872054E-10   0.00000000000000E+00   0.00000000000000E+00  -2.32752807406303E-09
      8.45596399202173E-34  -2.32752807406303E-09   6.42699802459664E-18   0.00000000000000E+00   0.00000000000000E+00
      0.00000000000000E+00   0.00000000000000E+00   0.00000000000000E+00   0.00000000000000E+00   0.00000000000000E+00
      8.05932383636466E-19   0.00000000000000E+00   0.00000000000000E+00   0.00000000000000E+00   0.00000000000000E+00
     -6.47394622626789E-19  -8.68424213289039E-34  -6.47394622626790E-19  -1.63810133026321E-17   1.09231136040312E-01
      1.09231135668810E-01   0.00000000000000E+00   0.00000000000000E+00   2.32752807471042E-09   2.28278140868663E-35
      2.32752807471042E-09   9.14808289439910E-18
      1.37012948884083E-01
      0.00000000000000E+00   3.78083953185073E-10   0.00000000000000E+00   0.00000000000000E+00  -2.38800660927976E-09
      8.29242234823534E-34  -2.38800660927976E-09   6.41851624421981E-18   0.00000000000000E+00   0.00000000000000E+00
      0.00000000000000E+00   0.00000000000000E+00   0.00000000000000E+00   0.00000000000000E+00   0.00000000000000E+00
      6.69105038834249E-19   0.00000000000000E+00   0.00000000000000E+00   0.00000000000000E+00   0.00000000000000E+00
      3.15061557520979E-18  -8.46460390495945E-34   3.15061557520979E-18  -1.63810940724085E-17   1.17831136040312E-01
      1.17831135659535E-01   0.00000000000000E+00   0.00000000000000E+00   2.38800660612915E-09   1.72181556724105E-35
      2.38800660612915E-09   9.29347278935441E-18
      1.47012948884083E-01
      0.00000000000000E+00   3.87615707663046E-10   0.00000000000000E+00   0.00000000000000E+00  -2.44988741924994E-09
      8.13926837940799E-34  -2.44988741924994E-09   6.41003641986188E-18   0.00000000000000E+00   0.00000000000000E+00
      0.00000000000000E+00   0.00000000000000E+00   0.00000000000000E+00   0.00000000000000E+00   0.00000000000000E+00
      5.32351678156276E-19   0.00000000000000E+00   0.00000000000000E+00   0.00000000000000E+00   0.00000000000000E+00
     -6.21696334189449E-18  -8.26509168241562E-34  -6.21696334189449E-18  -1.63813060478686E-17   1.26431136040312E-01
      1.26431135650047E-01   0.00000000000000E+00   0.00000000000000E+00   2.44988742546690E-09   1.25823303007639E-35
      2.44988742546690E-09   9.43891794985046E-18
      1.57012948884083E-01
      0.00000000000000E+00   3.97365765547371E-10   0.00000000000000E+00   0.00000000000000E+00  -2.51323530703392E-09
      8.42543991746623E-34  -2.51323530703392E-09   6.40155847144387E-18   0.00000000000000E+00   0.00000000000000E+00
      0.00000000000000E+00   0.00000000000000E+00   0.00000000000000E+00   0.00000000000000E+00   0.00000000000000E+00
      3.95670357134449E-19   0.00000000000000E+00   0.00000000000000E+00   0.00000000000000E+00   0.00000000000000E+00
      5.11261564902977E-19  -8.51357348362559E-34   5.11261564902977E-19  -1.63816400242864E-17   1.35031136040312E-01
      1.35031135640342E-01   0.00000000000000E+00   0.00000000000000E+00   2.51323530652265E-09   8.81335661593537E-36
      2.51323530652265E-09   9.58441119570806E-18
      1.67012948884083E-01
      0.00000000000000E+00   4.07339464085242E-10   0.00000000000000E+00   0.00000000000000E+00  -2.57808566875320E-09
      8.30475929801499E-34  -2.57808566875320E-09   6.39308232784824E-18   0.00000000000000E+00   0.00000000000000E+00
      0.00000000000000E+00   0.00000000000000E+00   0.00000000000000E+00   0.00000000000000E+00   0.00000000000000E+00
      2.59059491925849E-19   0.00000000000000E+00   0.00000000000000E+00   0.00000000000000E+00   0.00000000000000E+00
     -2.85877073461039E-18  -8.36671056406579E-34  -2.85877073461039E-18  -1.63820876657383E-17   1.43631136040312E-01
      1.43631135630416E-01   0.00000000000000E+00   0.00000000000000E+00   2.57808567161197E-09   6.19512660507840E-36
      2.57808567161197E-09   9.72994584596422E-18
      1.77012948884083E-01
      0.00000000000000E+00   4.17539361259386E-10   0.00000000000000E+00   0.00000000000000E+00  -2.64445676027995E-09
      8.37743063659105E-34  -2.64445676027995E-09   6.38460792721326E-18   0.00000000000000E+00   0.00000000000000E+00
      0.00000000000000E+00   0.00000000000000E+00   0.00000000000000E+00   0.00000000000000E+00   0.00000000000000E+00
      1.22517832919202E-19   0.00000000000000E+00   0.00000000000000E+00   0.00000000000000E+00   0.00000000000000E+00
     -5.01592264804683E-19  -8.42214412287054E-34  -5.01592264804684E-19  -1.63826414279607E-17   1.52231136040312E-01
      1.52231135620269E-01   0.00000000000000E+00   0.00000000000000E+00   2.64445676078154E-09   4.47134862794839E-36
      2.64445676078154E-09   9.87551566782822E-18
      1.87012948884083E-01
      0.00000000000000E+00   4.27967274314045E-10   0.00000000000000E+00   0.00000000000000E+00  -2.71236246095913E-09