DF-ISE text

Info {
  version   = 1.0
  type      = xyplot
  datasets  = [
    "time"
    "source OuterVoltage" "source InnerVoltage" "source QuasiFermiPotential" "source DisplacementCurrent" "source eCurrent"
    "source hCurrent" "source TotalCurrent" "source Charge" "gate OuterVoltage" "gate InnerVoltage"
    "gate QuasiFermiPotential" "gate DisplacementCurrent" "gate eCurrent" "gate hCurrent" "gate TotalCurrent"
    "gate Charge" "substrate OuterVoltage" "substrate InnerVoltage" "substrate QuasiFermiPotential" "substrate DisplacementCurrent"
    "substrate eCurrent" "substrate hCurrent" "substrate TotalCurrent" "substrate Charge" "drain OuterVoltage"
    "drain InnerVoltage" "drain QuasiFermiPotential" "drain DisplacementCurrent" "drain eCurrent" "drain hCurrent"
    "drain TotalCurrent" "drain Charge" ]
  functions = [
    Time
    OuterVoltage InnerVoltage QuasiFermiPotential DisplacementCurrent eCurrent
    hCurrent TotalCurrent Charge OuterVoltage InnerVoltage
    QuasiFermiPotential DisplacementCurrent eCurrent hCurrent TotalCurrent
    Charge OuterVoltage InnerVoltage QuasiFermiPotential DisplacementCurrent
    eCurrent hCurrent TotalCurrent Charge OuterVoltage
    InnerVoltage QuasiFermiPotential DisplacementCurrent eCurrent hCurrent
    TotalCurrent Charge ]
}

Data {
      0.00000000000000E+00
      0.00000000000000E+00   0.00000000000000E+00   0.00000000000000E+00   0.00000000000000E+00   1.62947555927607E-20
      1.16105070754485E-34   1.62947555927608E-20   6.36588258622722E-18   0.00000000000000E+00   0.00000000000000E+00
      0.00000000000000E+00   0.00000000000000E+00   0.00000000000000E+00   0.00000000000000E+00   0.00000000000000E+00
      4.28868463045998E-18   0.00000000000000E+00   0.00000000000000E+00   0.00000000000000E+00   0.00000000000000E+00
     -1.76842943026739E-20  -2.38738522434177E-34  -1.76842943026742E-20  -1.59481018800434E-17   0.00000000000000E+00
      0.00000000000000E+00   0.00000000000000E+00   0.00000000000000E+00   1.38953870991327E-21   1.22633451679692E-34
      1.38953870991340E-21   5.29353466335614E-18
      0.00000000000000E+00
      0.00000000000000E+00   9.23062685502782E-19   0.00000000000000E+00   0.00000000000000E+00  -1.23254374895347E-18
      9.70084059157414E-35  -1.23254374895347E-18   6.36128699399283E-18   0.00000000000000E+00   0.00000000000000E+00
      0.00000000000000E+00   0.00000000000000E+00   0.00000000000000E+00   0.00000000000000E+00   0.00000000000000E+00
      4.27924042587548E-18   0.00000000000000E+00   0.00000000000000E+00   0.00000000000000E+00   0.00000000000000E+00
      1.59530453229913E-18  -2.18053606572708E-34   1.59530453229913E-18  -1.59301825858445E-17   0.00000000000000E+00
      0.00000000000000E+00   0.00000000000000E+00   0.00000000000000E+00  -3.62760783345658E-19   1.21045200656966E-34
     -3.62760783345658E-19   5.28965516597617E-18
      1.00000000000000E-03
      0.00000000000000E+00   1.28561272419995E-11   0.00000000000000E+00   0.00000000000000E+00  -7.14403528489926E-11
      1.24786001230619E-34  -7.14403528489926E-11   6.36081939686074E-18   0.00000000000000E+00   0.00000000000000E+00
      0.00000000000000E+00   0.00000000000000E+00   0.00000000000000E+00   0.00000000000000E+00   0.00000000000000E+00
      4.26899565461423E-18   0.00000000000000E+00   0.00000000000000E+00   0.00000000000000E+00   0.00000000000000E+00
     -9.03290253355474E-20  -2.41267951315060E-34  -9.03290253355476E-20  -1.59300543220362E-17   8.60000000000000E-04
      8.59999987115117E-04   0.00000000000000E+00   0.00000000000000E+00   7.14403529393216E-11   1.16481950084441E-34
      7.14403529393216E-11   5.30023927056123E-18
      2.08666666666667E-03
      0.00000000000000E+00   2.60355124210561E-11   0.00000000000000E+00   0.00000000000000E+00  -1.44674811627363E-10
      1.21977085037120E-34  -1.44674811627363E-10   6.36031131748917E-18   0.00000000000000E+00   0.00000000000000E+00
      0.00000000000000E+00   0.00000000000000E+00   0.00000000000000E+00   0.00000000000000E+00   0.00000000000000E+00
      4.25786513316517E-18   0.00000000000000E+00   0.00000000000000E+00   0.00000000000000E+00   0.00000000000000E+00
      6.29835127873651E-16  -2.50884522925280E-34   6.29835127873651E-16  -1.59299204723795E-17   1.79453333333333E-03
      1.79453330723947E-03   0.00000000000000E+00   0.00000000000000E+00   1.44674181792235E-10   1.28907437888159E-34
      1.44674181792235E-10   5.31174402172521E-18
      3.28200000000000E-03
      0.00000000000000E+00   3.95966080201979E-11   0.00000000000000E+00   0.00000000000000E+00  -2.20025246291879E-10
      1.64957332569204E-34  -2.20025246291879E-10   6.35975248104885E-18   0.00000000000000E+00   0.00000000000000E+00
      0.00000000000000E+00   0.00000000000000E+00   0.00000000000000E+00   0.00000000000000E+00   0.00000000000000E+00
      4.24562408173295E-18   0.00000000000000E+00   0.00000000000000E+00   0.00000000000000E+00   0.00000000000000E+00
      8.96118145618359E-16  -2.63830426335928E-34   8.96118145618359E-16  -1.59297798099667E-17   2.82252000000000E-03
      2.82251996031497E-03   0.00000000000000E+00   0.00000000000000E+00   2.20024350173733E-10   9.88730937667233E-35
      2.20024350173733E-10   5.32440324718496E-18
      4.59686666666667E-03
      0.00000000000000E+00   5.34275743798554E-11   0.00000000000000E+00   0.00000000000000E+00  -2.96868410362390E-10
      1.23193150767212E-34  -2.96868410362390E-10   6.35913782145557E-18   0.00000000000000E+00   0.00000000000000E+00
      0.00000000000000E+00   0.00000000000000E+00   0.00000000000000E+00   0.00000000000000E+00   0.00000000000000E+00
      4.23216192482838E-18   0.00000000000000E+00   0.00000000000000E+00   0.00000000000000E+00   0.00000000000000E+00
      2.97088316450447E-19  -2.10729004133102E-34   2.97088316450447E-19  -1.59296329286088E-17   3.95330533333333E-03
      3.95330527978725E-03   0.00000000000000E+00   0.00000000000000E+00   2.96868410065302E-10   8.75358533658905E-35
      2.96868410065302E-10   5.33833318232493E-18
      6.03445422222222E-03
      0.00000000000000E+00   6.73187927332464E-11   0.00000000000000E+00   0.00000000000000E+00  -3.74042081070474E-10
      1.06241253927860E-34  -3.74042081070474E-10   6.35846586469356E-18   0.00000000000000E+00   0.00000000000000E+00
      0.00000000000000E+00   0.00000000000000E+00   0.00000000000000E+00   0.00000000000000E+00   0.00000000000000E+00
      4.21744682920036E-18   0.00000000000000E+00   0.00000000000000E+00   0.00000000000000E+00   0.00000000000000E+00
      2.64296411070991E-20  -2.10436673422188E-34   2.64296411070989E-20  -1.59294816105113E-17   5.18963063111111E-03
      5.18963056364341E-03   0.00000000000000E+00   0.00000000000000E+00   3.74042081044044E-10   1.04195419494328E-34
      3.74042081044044E-10   5.35356891661742E-18
      7.60621661629630E-03
      0.00000000000000E+00   8.11343070235486E-11   0.00000000000000E+00   0.00000000000000E+00  -4.50789199240299E-10
      1.31189857367439E-34  -4.50789199240299E-10   6.35773127495455E-18   0.00000000000000E+00   0.00000000000000E+00
      0.00000000000000E+00   0.00000000000000E+00   0.00000000000000E+00   0.00000000000000E+00   0.00000000000000E+00
      4.20136245740508E-18   0.00000000000000E+00   0.00000000000000E+00   0.00000000000000E+00   0.00000000000000E+00
      1.41995793373163E-19  -2.15603338708726E-34   1.41995793373162E-19  -1.59293270785088E-17   6.54134629001482E-03
      6.54134620870153E-03   0.00000000000000E+00   0.00000000000000E+00   4.50789199098303E-10   8.44134813412870E-35
      4.50789199098303E-10   5.37023334614915E-18
      9.32467683381729E-03
      0.00000000000000E+00   9.47269132135854E-11   0.00000000000000E+00   0.00000000000000E+00  -5.26292162385443E-10
      1.44700744671324E-34  -5.26292162385443E-10   6.35692822014047E-18   0.00000000000000E+00   0.00000000000000E+00
      0.00000000000000E+00   0.00000000000000E+00   0.00000000000000E+00   0.00000000000000E+00   0.00000000000000E+00
      4.18378170789998E-18   0.00000000000000E+00   0.00000000000000E+00   0.00000000000000E+00   0.00000000000000E+00
      1.91339855338835E-19  -2.40634982524668E-34   1.91339855338835E-19  -1.59291709401424E-17   8.01922207708287E-03
      8.01922198214748E-03   0.00000000000000E+00   0.00000000000000E+00   5.26292162194103E-10   9.59342378533445E-35
      5.26292162194103E-10   5.38846101210200E-18
      1.12035266716402E-02
      0.00000000000000E+00   1.07941321698587E-10   0.00000000000000E+00   0.00000000000000E+00  -5.99688687211992E-10
      1.35817831274310E-34  -5.99688687211992E-10   6.35605032571606E-18   0.00000000000000E+00   0.00000000000000E+00
      0.00000000000000E+00   0.00000000000000E+00   0.00000000000000E+00   0.00000000000000E+00   0.00000000000000E+00
      4.16456572234339E-18   0.00000000000000E+00   0.00000000000000E+00   0.00000000000000E+00   0.00000000000000E+00
      2.42577241818848E-19  -2.22591045750171E-34   2.42577241818848E-19  -1.59290152628623E-17   9.63503293761060E-03
      9.63503282943225E-03   0.00000000000000E+00   0.00000000000000E+00   5.99688686969415E-10   8.67732144758603E-35
      5.99688686969415E-10   5.40839921480291E-18
      1.32577358276600E-02
      0.00000000000000E+00   1.20618502162249E-10   0.00000000000000E+00   0.00000000000000E+00  -6.70096418738645E-10
      1.29965509275614E-34  -6.70096418738645E-10   6.35509062424564E-18   0.00000000000000E+00   0.00000000000000E+00
      0.00000000000000E+00   0.00000000000000E+00   0.00000000000000E+00   0.00000000000000E+00   0.00000000000000E+00
      4.14356280083563E-18   0.00000000000000E+00   0.00000000000000E+00   0.00000000000000E+00   0.00000000000000E+00
      8.12928318082077E-20  -2.15237248193056E-34   8.12928318082075E-20  -1.59288626603073E-17   1.14016528117876E-02
      1.14016526909047E-02   0.00000000000000E+00   0.00000000000000E+00   6.70096418657352E-10   8.52717389174419E-35
      6.70096418657352E-10   5.43020923522600E-18
      1.55036711715749E-02
      0.00000000000000E+00   1.32601211337629E-10   0.00000000000000E+00   0.00000000000000E+00  -7.36643819623199E-10
      1.18027462219522E-34  -7.36643819623199E-10   6.35404150021593E-18   0.00000000000000E+00   0.00000000000000E+00
      0.00000000000000E+00   0.00000000000000E+00   0.00000000000000E+00   0.00000000000000E+00   0.00000000000000E+00
      4.12060721720832E-18   0.00000000000000E+00   0.00000000000000E+00   0.00000000000000E+00   0.00000000000000E+00
     -2.74796090228421E-19  -1.79665171094539E-34  -2.74796090228421E-19  -1.59287163918137E-17   1.33331572075544E-02
      1.33331570746631E-02   0.00000000000000E+00   0.00000000000000E+00   7.36643819897994E-10   6.16377088750169E-35
      7.36643819897994E-10   5.45406767438946E-18
      1.79592271475886E-02
      0.00000000000000E+00   1.43741402892849E-10   0.00000000000000E+00   0.00000000000000E+00  -7.98510999988878E-10
      1.25354992199428E-34  -7.98510999988878E-10   6.35289462965554E-18   0.00000000000000E+00   0.00000000000000E+00
      0.00000000000000E+00   0.00000000000000E+00   0.00000000000000E+00   0.00000000000000E+00   0.00000000000000E+00
      4.09551792257517E-18   0.00000000000000E+00   0.00000000000000E+00   0.00000000000000E+00   0.00000000000000E+00
     -4.59942032197973E-19  -1.96366152511085E-34  -4.59942032197973E-19  -1.59285804734791E-17   1.54449353469262E-02
      1.54449352028707E-02   0.00000000000000E+00   0.00000000000000E+00   7.98511000448820E-10   7.10111603116571E-35
      7.98511000448820E-10   5.48016792124839E-18
      2.06439683480302E-02
      0.00000000000000E+00   1.53908335613728E-10   0.00000000000000E+00   0.00000000000000E+00  -8.54975153745725E-10
      1.31793213862045E-34  -8.54975153745725E-10   6.35164091409798E-18   0.00000000000000E+00   0.00000000000000E+00
      0.00000000000000E+00   0.00000000000000E+00   0.00000000000000E+00   0.00000000000000E+00   0.00000000000000E+00
      4.06809712892515E-18   0.00000000000000E+00   0.00000000000000E+00   0.00000000000000E+00   0.00000000000000E+00
     -7.82053784092909E-20  -2.01953947527760E-34  -7.82053784092911E-20  -1.59284598048474E-17   1.77538127793060E-02
      1.77538126250615E-02   0.00000000000000E+00   0.00000000000000E+00   8.54975153823930E-10   7.01607336657151E-35
      8.54975153823930E-10   5.50872176182435E-18
      2.35792853938464E-02
      0.00000000000000E+00   1.62997994643083E-10   0.00000000000000E+00   0.00000000000000E+00  -9.05463060828490E-10
      1.16941904953672E-34  -9.05463060828490E-10   6.35027040828640E-18   0.00000000000000E+00   0.00000000000000E+00
      0.00000000000000E+00   0.00000000000000E+00   0.00000000000000E+00   0.00000000000000E+00   0.00000000000000E+00
      4.03812875830849E-18   0.00000000000000E+00   0.00000000000000E+00   0.00000000000000E+00   0.00000000000000E+00
      6.08719844490945E-20  -1.80436124245941E-34   6.08719844490943E-20  -1.59283603085252E-17   2.02781854387079E-02
      2.02781852753540E-02   0.00000000000000E+00   0.00000000000000E+00   9.05463060767618E-10   6.34942192922693E-35
      9.05463060767618E-10   5.53996114193030E-18
      2.67885653639387E-02
      0.00000000000000E+00   1.70942961328489E-10   0.00000000000000E+00   0.00000000000000E+00  -9.49605281564364E-10
      1.01647399897428E-34  -9.49605281564364E-10   6.34877224108991E-18   0.00000000000000E+00   0.00000000000000E+00
      0.00000000000000E+00   0.00000000000000E+00   0.00000000000000E+00   0.00000000000000E+00   0.00000000000000E+00
      4.00537674707698E-18   0.00000000000000E+00   0.00000000000000E+00   0.00000000000000E+00   0.00000000000000E+00
     -1.26339322359500E-19  -1.75175653529974E-34  -1.26339322359501E-19  -1.59282890868997E-17   2.30381662129873E-02
      2.30381660416709E-02   0.00000000000000E+00   0.00000000000000E+00   9.49605281690703E-10   7.35282536325468E-35
      9.49605281690703E-10   5.57414009873280E-18
      3.02973781312396E-02
      0.00000000000000E+00   1.77722167687212E-10   0.00000000000000E+00   0.00000000000000E+00  -9.87290842874203E-10
      1.51660936136066E-34  -9.87290842874203E-10   6.34713452888822E-18   0.00000000000000E+00   0.00000000000000E+00
      0.00000000000000E+00   0.00000000000000E+00   0.00000000000000E+00   0.00000000000000E+00   0.00000000000000E+00
      3.96958318704023E-18   0.00000000000000E+00   0.00000000000000E+00   0.00000000000000E+00   0.00000000000000E+00
     -3.63550316716740E-19  -2.00817540405853E-34  -3.63550316716740E-19  -1.59282545908340E-17   2.60557451928661E-02
      2.60557450147553E-02   0.00000000000000E+00   0.00000000000000E+00   9.87290843237752E-10   4.91566042697868E-35
      9.87290843237752E-10   5.61153687490556E-18
      3.41336800901553E-02
      0.00000000000000E+00   1.83369160124900E-10   0.00000000000000E+00   0.00000000000000E+00  -1.01871263041597E-09
      1.42092615847654E-34  -1.01871263041597E-09   6.34534428079730E-18   0.00000000000000E+00   0.00000000000000E+00
      0.00000000000000E+00   0.00000000000000E+00   0.00000000000000E+00   0.00000000000000E+00   0.00000000000000E+00
      3.93046629152186E-18   0.00000000000000E+00   0.00000000000000E+00   0.00000000000000E+00   0.00000000000000E+00
     -6.54132181627204E-19  -1.85987701288200E-34  -6.54132181627204E-19  -1.59282668059101E-17   2.93549648775336E-02
      2.93549646937632E-02   0.00000000000000E+00   0.00000000000000E+00   1.01871263107010E-09   4.38950854405463E-35
      1.01871263107010E-09   5.65245623359089E-18
      3.83280368985698E-02
      0.00000000000000E+00   1.87977886577091E-10   0.00000000000000E+00   0.00000000000000E+00  -1.04439916545181E-09
      1.26181432106417E-34  -1.04439916545181E-09   6.34338729486928E-18   0.00000000000000E+00   0.00000000000000E+00
      0.00000000000000E+00   0.00000000000000E+00   0.00000000000000E+00   0.00000000000000E+00   0.00000000000000E+00
      3.88771816154218E-18   0.00000000000000E+00   0.00000000000000E+00   0.00000000000000E+00   0.00000000000000E+00
     -2.03796513075700E-18  -1.65158905465909E-34  -2.03796513075700E-18  -1.59283374458568E-17   3.29621117327701E-02
      3.29621115443808E-02   0.00000000000000E+00   0.00000000000000E+00   1.04439916748978E-09   3.89774733594924E-35
      1.04439916748978E-09   5.69723198944528E-18
      4.29138670091030E-02
      0.00000000000000E+00   1.91702341130074E-10   0.00000000000000E+00   0.00000000000000E+00  -1.06521212086002E-09
      1.23890436523415E-34  -1.06521212086002E-09   6.34124804458525E-18   0.00000000000000E+00   0.00000000000000E+00
      0.00000000000000E+00   0.00000000000000E+00   0.00000000000000E+00   0.00000000000000E+00   0.00000000000000E+00
      3.84100234064383E-18   0.00000000000000E+00   0.00000000000000E+00   0.00000000000000E+00   0.00000000000000E+00
     -3.00793959880605E-18  -1.59993035663210E-34  -3.00793959880605E-18  -1.59284801620476E-17   3.69059256278286E-02
      3.69059254357075E-02   0.00000000000000E+00   0.00000000000000E+00   1.06521212386796E-09   3.61025991397950E-35
      1.06521212386796E-09   5.74622977681843E-18
      4.79277079299527E-02
      0.00000000000000E+00   1.94748319686519E-10   0.00000000000000E+00   0.00000000000000E+00  -1.08229950584185E-09
      1.43918296497202E-34  -1.08229950584185E-09   6.33890955474010E-18   0.00000000000000E+00   0.00000000000000E+00
      0.00000000000000E+00   0.00000000000000E+00   0.00000000000000E+00   0.00000000000000E+00   0.00000000000000E+00
      3.78995113035215E-18   0.00000000000000E+00   0.00000000000000E+00   0.00000000000000E+00   0.00000000000000E+00
     -5.34953992000524E-18  -1.70294629677040E-34  -5.34953992000524E-18  -1.59287107586385E-17   4.12178288197593E-02
      4.12178286245876E-02   0.00000000000000E+00   0.00000000000000E+00   1.08229951119139E-09   2.63763331798382E-35
      1.08229951119139E-09   5.79985007354621E-18
      5.34095073367482E-02
      0.00000000000000E+00   1.97354775945356E-10   0.00000000000000E+00   0.00000000000000E+00  -1.09699245977967E-09
      1.07691809950844E-34  -1.09699245977967E-09   6.33635326585597E-18   0.00000000000000E+00   0.00000000000000E+00
      0.00000000000000E+00   0.00000000000000E+00   0.00000000000000E+00   0.00000000000000E+00   0.00000000000000E+00
      3.73416265175140E-18   0.00000000000000E+00   0.00000000000000E+00   0.00000000000000E+00   0.00000000000000E+00
     -2.61763928742613E-17  -1.31830261515650E-34  -2.61763928742613E-17  -1.59290474204517E-17   4.59321763096035E-02
      4.59321761118236E-02   0.00000000000000E+00   0.00000000000000E+00   1.09699248595606E-09   2.41384515648056E-35
      1.09699248595606E-09   5.85853150284432E-18
      5.94029413548448E-02
      0.00000000000000E+00   1.99767843187078E-10   0.00000000000000E+00   0.00000000000000E+00  -1.11065857788900E-09
      1.19084248261531E-34  -1.11065857788900E-09   6.33355888628574E-18   0.00000000000000E+00   0.00000000000000E+00
      0.00000000000000E+00   0.00000000000000E+00   0.00000000000000E+00   0.00000000000000E+00   0.00000000000000E+00
      3.67319763042658E-18   0.00000000000000E+00   0.00000000000000E+00   0.00000000000000E+00   0.00000000000000E+00
     -3.51197400524212E-17  -1.36194295670197E-34  -3.51197400524212E-17  -1.59295109522538E-17   5.10865295651665E-02
      5.10865293649754E-02   0.00000000000000E+00   0.00000000000000E+00   1.11065861300874E-09   1.71100474086664E-35
      1.11065861300874E-09   5.92275443554133E-18
      6.59557625479636E-02
      0.00000000000000E+00   2.02206375882167E-10   0.00000000000000E+00   0.00000000000000E+00  -1.12451449612202E-09
      9.81842169111179E-35  -1.12451449612202E-09   6.33050423125394E-18   0.00000000000000E+00   0.00000000000000E+00
      0.00000000000000E+00   0.00000000000000E+00   0.00000000000000E+00   0.00000000000000E+00   0.00000000000000E+00
      3.60657589358998E-18   0.00000000000000E+00   0.00000000000000E+00   0.00000000000000E+00   0.00000000000000E+00
     -3.99451518349066E-17  -1.13825460148465E-34  -3.99451518349066E-17  -1.59301250438005E-17   5.67219557912487E-02
      5.67219555886246E-02   0.00000000000000E+00   0.00000000000000E+00   1.12451453606717E-09   1.56412432373468E-35
      1.12451453606717E-09   5.99304491895659E-18
      7.31201803857736E-02
      0.00000000000000E+00   2.04827100382465E-10   0.00000000000000E+00   0.00000000000000E+00  -1.13942765968637E-09
      1.16823577356693E-34  -1.13942765968637E-09   6.32716504712672E-18   0.00000000000000E+00   0.00000000000000E+00
      0.00000000000000E+00   0.00000000000000E+00   0.00000000000000E+00   0.00000000000000E+00   0.00000000000000E+00
      3.53377255049159E-18   0.00000000000000E+00   0.00000000000000E+00   0.00000000000000E+00   0.00000000000000E+00
      9.17932191131268E-20  -1.32055967241706E-34   9.17932191131267E-20  -1.59309165546661E-17   6.28833551317653E-02
      6.28833549265303E-02   0.00000000000000E+00   0.00000000000000E+00   1.13942765959458E-09   1.52323898850134E-35
      1.13942765959458E-09   6.06997895704782E-18
      8.09055144361937E-02
      0.00000000000000E+00   2.07700182836477E-10   0.00000000000000E+00   0.00000000000000E+00  -1.15578704322008E-09
      1.21163384115234E-34  -1.15578704322008E-09   6.32353707338784E-18   0.00000000000000E+00   0.00000000000000E+00
      0.00000000000000E+00   0.00000000000000E+00   0.00000000000000E+00   0.00000000000000E+00   0.00000000000000E+00
      3.45469880204274E-18   0.00000000000000E+00   0.00000000000000E+00   0.00000000000000E+00   0.00000000000000E+00
     -1.97667947922847E-19  -1.29990484391901E-34  -1.97667947922847E-19  -1.59319092991181E-17   6.95787424151266E-02
      6.95787422070326E-02   0.00000000000000E+00   0.00000000000000E+00   1.15578704341775E-09   8.82710027666686E-36
      1.15578704341775E-09   6.15367342368743E-18
      8.93655774376503E-02
      0.00000000000000E+00   2.10874872330727E-10   0.00000000000000E+00   0.00000000000000E+00  -1.17386855983104E-09
      1.17037872247528E-34  -1.17386855983104E-09   6.31959531310129E-18   0.00000000000000E+00   0.00000000000000E+00
      0.00000000000000E+00   0.00000000000000E+00   0.00000000000000E+00   0.00000000000000E+00   0.00000000000000E+00
      3.36881391034210E-18   0.00000000000000E+00   0.00000000000000E+00   0.00000000000000E+00   0.00000000000000E+00
      1.08026313507813E-19  -1.24440844820677E-34   1.08026313507813E-19  -1.59331335134015E-17   7.68543965963792E-02
      7.68543963851291E-02   0.00000000000000E+00   0.00000000000000E+00   1.17386855972302E-09   7.40297257314856E-36
      1.17386855972302E-09   6.24472428995806E-18
      9.85588458992330E-02
      0.00000000000000E+00   2.14378222909463E-10   0.00000000000000E+00   0.00000000000000E+00  -1.19382814859695E-09
      1.28651938852370E-34  -1.19382814859695E-09   6.31531260310337E-18   0.00000000000000E+00   0.00000000000000E+00
      0.00000000000000E+00   0.00000000000000E+00   0.00000000000000E+00   0.00000000000000E+00   0.00000000000000E+00
      3.27553031825641E-18   0.00000000000000E+00   0.00000000000000E+00   0.00000000000000E+00   0.00000000000000E+00
     -7.50101379078379E-20  -1.33621343276935E-34  -7.50101379078381E-20  -1.59346226642424E-17   8.47606074733404E-02
      8.47606072586090E-02   0.00000000000000E+00   0.00000000000000E+00   1.19382814867196E-09   4.96940442456507E-36
      1.19382814867196E-09   6.34377974288264E-18
      1.08548864294153E-01
      0.00000000000000E+00   2.18220093805230E-10   0.00000000000000E+00   0.00000000000000E+00  -1.21572802009329E-09
      1.49380914203790E-34  -1.21572802009329E-09   6.31065942533064E-18   0.00000000000000E+00   0.00000000000000E+00
      0.00000000000000E+00   0.00000000000000E+00   0.00000000000000E+00   0.00000000000000E+00   0.00000000000000E+00
      3.17420959039488E-18   0.00000000000000E+00   0.00000000000000E+00   0.00000000000000E+00   0.00000000000000E+00
      3.77529545983548E-19  -1.53543897267683E-34   3.77529545983548E-19  -1.59364136464338E-17   9.33520232929716E-02
      9.33520230744252E-02   0.00000000000000E+00   0.00000000000000E+00   1.21572801971577E-09   4.16298306389283E-36
      1.21572801971577E-09   6.45154463070824E-18
      1.18548864294153E-01
      0.00000000000000E+00   2.22090332263448E-10   0.00000000000000E+00   0.00000000000000E+00  -1.23780569475080E-09
      1.51493332780752E-34  -1.23780569475080E-09   6.30600223974035E-18   0.00000000000000E+00   0.00000000000000E+00
      0.00000000000000E+00   0.00000000000000E+00   0.00000000000000E+00   0.00000000000000E+00   0.00000000000000E+00
      3.07283202602434E-18   0.00000000000000E+00   0.00000000000000E+00   0.00000000000000E+00   0.00000000000000E+00
     -2.84542077654353E-20  -1.54432617385249E-34  -2.84542077654354E-20  -1.59383719485779E-17   1.01952023292972E-01
      1.01952023070587E-01   0.00000000000000E+00   0.00000000000000E+00   1.23780569477925E-09   2.93928460449698E-36
      1.23780569477925E-09   6.55953768281323E-18
      1.28548864294153E-01
      0.00000000000000E+00   2.25990446107014E-10   0.00000000000000E+00   0.00000000000000E+00  -1.26007043830128E-09
      1.34417996922795E-34  -1.26007043830128E-09   6.30134561292263E-18   0.00000000000000E+00   0.00000000000000E+00
      0.00000000000000E+00   0.00000000000000E+00   0.00000000000000E+00   0.00000000000000E+00   0.00000000000000E+00
      2.97149430647404E-18   0.00000000000000E+00   0.00000000000000E+00   0.00000000000000E+00   0.00000000000000E+00
      2.26960805026023E-19  -1.37852918302684E-34   2.26960805026023E-19  -1.59404822570459E-17   1.10552023292972E-01
      1.10552023066723E-01   0.00000000000000E+00   0.00000000000000E+00   1.26007043807432E-09   3.43492137988935E-36
      1.26007043807432E-09   6.66764233764918E-18
      1.38548864294153E-01
      0.00000000000000E+00   2.29928377828804E-10   0.00000000000000E+00   0.00000000000000E+00  -1.28256678631504E-09
      1.21537904386403E-34  -1.28256678631504E-09   6.29668947243308E-18   0.00000000000000E+00   0.00000000000000E+00
      0.00000000000000E+00   0.00000000000000E+00   0.00000000000000E+00   0.00000000000000E+00   0.00000000000000E+00
      2.87019244931778E-18   0.00000000000000E+00   0.00000000000000E+00   0.00000000000000E+00   0.00000000000000E+00
     -4.93682727067686E-20  -1.23573592341577E-34  -4.93682727067687E-20  -1.59427323317247E-17   1.19152023292972E-01
      1.19152023062822E-01   0.00000000000000E+00   0.00000000000000E+00   1.28256678636441E-09   2.03568795517408E-36
      1.28256678636441E-09   6.77585040997378E-18
      1.48548864294153E-01
      0.00000000000000E+00   2.33909615036485E-10   0.00000000000000E+00   0.00000000000000E+00  -1.30532542484708E-09
      1.32246072641054E-34  -1.30532542484708E-09   6.29203375599642E-18   0.00000000000000E+00   0.00000000000000E+00
      0.00000000000000E+00   0.00000000000000E+00   0.00000000000000E+00   0.00000000000000E+00   0.00000000000000E+00
      2.76892300878613E-18   0.00000000000000E+00   0.00000000000000E+00   0.00000000000000E+00   0.00000000000000E+00
     -3.83877520277142E-19  -1.33403531400628E-34  -3.83877520277143E-19  -1.59451111718352E-17   1.27752023292972E-01
      1.27752023058875E-01   0.00000000000000E+00   0.00000000000000E+00   1.30532542523095E-09   1.15745875957381E-36
      1.30532542523095E-09   6.88415440705271E-18
      1.58548864294153E-01
      0.00000000000000E+00   2.37937398141614E-10   0.00000000000000E+00   0.00000000000000E+00  -1.32836424483287E-09
      1.36805349907683E-34  -1.32836424483287E-09   6.28737840850174E-18   0.00000000000000E+00   0.00000000000000E+00
      0.00000000000000E+00   0.00000000000000E+00   0.00000000000000E+00   0.00000000000000E+00   0.00000000000000E+00
      2.66768298206124E-18   0.00000000000000E+00   0.00000000000000E+00   0.00000000000000E+00   0.00000000000000E+00
      2.11370659883105E-19  -1.37684856081016E-34   2.11370659883104E-19  -1.59476088464433E-17   1.36352023292972E-01
      1.36352023054878E-01   0.00000000000000E+00   0.00000000000000E+00   1.32836424462150E-09   8.79506173332829E-37
      1.32836424462150E-09   6.99254745588032E-18
      1.68548864294153E-01
      0.00000000000000E+00   2.42013377580272E-10   0.00000000000000E+00   0.00000000000000E+00  -1.35169235384620E-09
      1.39598397831016E-34  -1.35169235384620E-09   6.28272337999155E-18   0.00000000000000E+00   0.00000000000000E+00
      0.00000000000000E+00   0.00000000000000E+00   0.00000000000000E+00   0.00000000000000E+00   0.00000000000000E+00
      2.56646971338925E-18   0.00000000000000E+00   0.00000000000000E+00   0.00000000000000E+00   0.00000000000000E+00
      1.52603394252592E-19  -1.40392615271683E-34   1.52603394252591E-19  -1.59502163317934E-17   1.44952023292972E-01
      1.44952023050831E-01   0.00000000000000E+00   0.00000000000000E+00   1.35169235369360E-09   7.94217440666166E-37
      1.35169235369360E-09   7.10102323841258E-18
      1.78548864294153E-01
      0.00000000000000E+00   2.46138096113319E-10   0.00000000000000E+00   0.00000000000000E+00  -1.37531283891951E-09
      1.34837701765533E-34  -1.37531283891951E-09   6.27806862500340E-18   0.00000000000000E+00   0.00000000000000E+00
      0.00000000000000E+00   0.00000000000000E+00   0.00000000000000E+00   0.00000000000000E+00   0.00000000000000E+00
      2.46528083299878E-18   0.00000000000000E+00   0.00000000000000E+00   0.00000000000000E+00   0.00000000000000E+00
      2.17420188408933E-19  -1.35313122502717E-34   2.17420188408933E-19  -1.59529253974229E-17   1.53552023292972E-01
      1.53552023046735E-01   0.00000000000000E+00   0.00000000000000E+00   1.37531283870210E-09   4.75420737183756E-37
      1.37531283870210E-09   7.20957593942078E-18
      1.88548864294153E-01
      0.00000000000000E+00   2.50311507587620E-10   0.00000000000000E+00   0.00000000000000E+00  -1.39922576886794E-09