DF-ISE text

Info {
  version   = 1.0
  type      = xyplot
  datasets  = [
    "time"
    "source OuterVoltage" "source InnerVoltage" "source QuasiFermiPotential" "source DisplacementCurrent" "source eCurrent"
    "source hCurrent" "source TotalCurrent" "source Charge" "gate OuterVoltage" "gate InnerVoltage"
    "gate QuasiFermiPotential" "gate DisplacementCurrent" "gate eCurrent" "gate hCurrent" "gate TotalCurrent"
    "gate Charge" "substrate OuterVoltage" "substrate InnerVoltage" "substrate QuasiFermiPotential" "substrate DisplacementCurrent"
    "substrate eCurrent" "substrate hCurrent" "substrate TotalCurrent" "substrate Charge" "drain OuterVoltage"
    "drain InnerVoltage" "drain QuasiFermiPotential" "drain DisplacementCurrent" "drain eCurrent" "drain hCurrent"
    "drain TotalCurrent" "drain Charge" ]
  functions = [
    Time
    OuterVoltage InnerVoltage QuasiFermiPotential DisplacementCurrent eCurrent
    hCurrent TotalCurrent Charge OuterVoltage InnerVoltage
    QuasiFermiPotential DisplacementCurrent eCurrent hCurrent TotalCurrent
    Charge OuterVoltage InnerVoltage QuasiFermiPotential DisplacementCurrent
    eCurrent hCurrent TotalCurrent Charge OuterVoltage
    InnerVoltage QuasiFermiPotential DisplacementCurrent eCurrent hCurrent
    TotalCurrent Charge ]
}

Data {
      0.00000000000000E+00
      0.00000000000000E+00   0.00000000000000E+00   0.00000000000000E+00   0.00000000000000E+00   1.99676748438143E-21
      5.20910428228170E-34   1.99676748438195E-21   6.23265942389191E-18   0.00000000000000E+00   0.00000000000000E+00
      0.00000000000000E+00   0.00000000000000E+00   0.00000000000000E+00   0.00000000000000E+00   0.00000000000000E+00
      2.00327765353496E-18   0.00000000000000E+00   0.00000000000000E+00   0.00000000000000E+00   0.00000000000000E+00
     -2.06313067847290E-19  -1.10078557414855E-33  -2.06313067847291E-19  -1.49596440220766E-17   0.00000000000000E+00
      0.00000000000000E+00   0.00000000000000E+00   0.00000000000000E+00   2.04316300362909E-19   5.79875145920385E-34
      2.04316300362909E-19   6.72370694464963E-18
      0.00000000000000E+00
      0.00000000000000E+00   4.21306133979481E-19   0.00000000000000E+00   0.00000000000000E+00  -3.28847126432445E-19
      5.07743294387875E-34  -3.28847126432445E-19   6.22803402044884E-18   0.00000000000000E+00   0.00000000000000E+00
      0.00000000000000E+00   0.00000000000000E+00   0.00000000000000E+00   0.00000000000000E+00   0.00000000000000E+00
      1.99586055367766E-18   0.00000000000000E+00   0.00000000000000E+00   0.00000000000000E+00   0.00000000000000E+00
      3.48542343713360E-18  -1.04911733919372E-33   3.48542343713360E-18  -1.49433697476897E-17   0.00000000000000E+00
      0.00000000000000E+00   0.00000000000000E+00   0.00000000000000E+00  -3.15657631070115E-18   5.41374044805840E-34
     -3.15657631070115E-18   6.71947517356321E-18
      1.00000000000000E-03
      0.00000000000000E+00   3.69924796471211E-11   0.00000000000000E+00   0.00000000000000E+00  -2.32050359366709E-10
      5.14552465795927E-34  -2.32050359366709E-10   6.22722308303683E-18   0.00000000000000E+00   0.00000000000000E+00
      0.00000000000000E+00   0.00000000000000E+00   0.00000000000000E+00   0.00000000000000E+00   0.00000000000000E+00
      1.98179394377555E-18   0.00000000000000E+00   0.00000000000000E+00   0.00000000000000E+00   0.00000000000000E+00
     -8.67558584741380E-19  -1.05142639412379E-33  -8.67558584741381E-19  -1.49428019299028E-17   8.60000000000000E-04
      8.59999962711455E-04   0.00000000000000E+00   0.00000000000000E+00   2.32050360234268E-10   5.36873928327866E-34
      2.32050360234268E-10   6.73378490309036E-18
      2.08666666666667E-03
      0.00000000000000E+00   7.47305759361997E-11   0.00000000000000E+00   0.00000000000000E+00  -4.68768040544517E-10
      5.28505277086661E-34  -4.68768040544517E-10   6.22634199412988E-18   0.00000000000000E+00   0.00000000000000E+00
      0.00000000000000E+00   0.00000000000000E+00   0.00000000000000E+00   0.00000000000000E+00   0.00000000000000E+00
      1.96651150263182E-18   0.00000000000000E+00   0.00000000000000E+00   0.00000000000000E+00   0.00000000000000E+00
      2.29931488275044E-18  -1.08899629362249E-33   2.29931488275044E-18  -1.49421922217569E-17   1.79453333333333E-03
      1.79453325800557E-03   0.00000000000000E+00   0.00000000000000E+00   4.68768038245203E-10   5.60491016535834E-34
      4.68768038245203E-10   6.74933872499523E-18
      3.27475555555556E-03
      0.00000000000000E+00   1.13105928086964E-10   0.00000000000000E+00   0.00000000000000E+00  -7.09468950211555E-10
      5.30885610209173E-34  -7.09468950211555E-10   6.22537882349427E-18   0.00000000000000E+00   0.00000000000000E+00
      0.00000000000000E+00   0.00000000000000E+00   0.00000000000000E+00   0.00000000000000E+00   0.00000000000000E+00
      1.94980654949713E-18   0.00000000000000E+00   0.00000000000000E+00   0.00000000000000E+00   0.00000000000000E+00
     -1.54626071014410E-18  -1.03520547026864E-33  -1.54626071014410E-18  -1.49415342275836E-17   2.81628977777778E-03
      2.81628966376940E-03   0.00000000000000E+00   0.00000000000000E+00   7.09468951757816E-10   5.04319860059469E-34
      7.09468951757816E-10   6.76634885459214E-18
      4.57373274074074E-03
      0.00000000000000E+00   1.51770013970528E-10   0.00000000000000E+00   0.00000000000000E+00  -9.51964975193985E-10
      5.55127759280390E-34  -9.51964975193985E-10   6.22432593765099E-18   0.00000000000000E+00   0.00000000000000E+00
      0.00000000000000E+00   0.00000000000000E+00   0.00000000000000E+00   0.00000000000000E+00   0.00000000000000E+00
      1.93154699953575E-18   0.00000000000000E+00   0.00000000000000E+00   0.00000000000000E+00   0.00000000000000E+00
     -3.46782759167081E-19  -1.03490516690909E-33  -3.46782759167082E-19  -1.49408249901265E-17   3.93341015703704E-03
      3.93341000405799E-03   0.00000000000000E+00   0.00000000000000E+00   9.51964975540768E-10   4.79777407628705E-34
      9.51964975540768E-10   6.78495205293974E-18
      5.99394779654321E-03
      0.00000000000000E+00   1.90346479132184E-10   0.00000000000000E+00   0.00000000000000E+00  -1.19389478313519E-09
      5.13285721418345E-34  -1.19389478313519E-09   6.22317499498019E-18   0.00000000000000E+00   0.00000000000000E+00
      0.00000000000000E+00   0.00000000000000E+00   0.00000000000000E+00   0.00000000000000E+00   0.00000000000000E+00
      1.91158855404733E-18   0.00000000000000E+00   0.00000000000000E+00   0.00000000000000E+00   0.00000000000000E+00
     -2.38587842127034E-18  -9.86021536055297E-34  -2.38587842127034E-18  -1.49400615404236E-17   5.15479510502716E-03
      5.15479491316683E-03   0.00000000000000E+00   0.00000000000000E+00   1.19389478552107E-09   4.72735814636951E-34
      1.19389478552107E-09   6.80529799139608E-18
      7.54671625755391E-03
      0.00000000000000E+00   2.28431333541365E-10   0.00000000000000E+00   0.00000000000000E+00  -1.43272572070594E-09
      5.18706482241544E-34  -1.43272572070594E-09   6.22191688025031E-18   0.00000000000000E+00   0.00000000000000E+00
      0.00000000000000E+00   0.00000000000000E+00   0.00000000000000E+00   0.00000000000000E+00   0.00000000000000E+00
      1.88977357735046E-18   0.00000000000000E+00   0.00000000000000E+00   0.00000000000000E+00   0.00000000000000E+00
     -1.27177548416145E-18  -9.46820538117828E-34  -1.27177548416145E-18  -1.49392409375069E-17   6.49017598149636E-03
      6.49017575125142E-03   0.00000000000000E+00   0.00000000000000E+00   1.43272572197772E-09   4.28114055876284E-34
      1.43272572197772E-09   6.82755047990622E-18
      9.24440977492561E-03
      0.00000000000000E+00   2.65599379038026E-10   0.00000000000000E+00   0.00000000000000E+00  -1.66579412857491E-09
      4.88865844240005E-34  -1.66579412857491E-09   6.22054163308565E-18   0.00000000000000E+00   0.00000000000000E+00
      0.00000000000000E+00   0.00000000000000E+00   0.00000000000000E+00   0.00000000000000E+00   0.00000000000000E+00
      1.86592987102292E-18   0.00000000000000E+00   0.00000000000000E+00   0.00000000000000E+00   0.00000000000000E+00
      6.92169070684985E-19  -8.90298187954452E-34   6.92169070684984E-19  -1.49383603174618E-17   7.95019240643603E-03
      7.95019213873184E-03   0.00000000000000E+00   0.00000000000000E+00   1.66579412788274E-09   4.01432343714447E-34
      1.66579412788274E-09   6.85188881335329E-18
      1.11005546872520E-02
      0.00000000000000E+00   3.01415721101448E-10   0.00000000000000E+00   0.00000000000000E+00  -1.89037805945459E-09
      4.80952113637297E-34  -1.89037805945459E-09   6.21903836967392E-18   0.00000000000000E+00   0.00000000000000E+00
      0.00000000000000E+00   0.00000000000000E+00   0.00000000000000E+00   0.00000000000000E+00   0.00000000000000E+00
      1.83986933355410E-18   0.00000000000000E+00   0.00000000000000E+00   0.00000000000000E+00   0.00000000000000E+00
     -1.16934914741808E-18  -8.73635727623983E-34  -1.16934914741808E-18  -1.49374169492953E-17   9.54647703103672E-03
      9.54647672723707E-03   0.00000000000000E+00   0.00000000000000E+00   1.89037806062394E-09   3.92683613986686E-34
      1.89037806062394E-09   6.87850924606728E-18
      1.31299397913955E-02
      0.00000000000000E+00   3.35449698916253E-10   0.00000000000000E+00   0.00000000000000E+00  -2.10378505857710E-09
      5.48359660344295E-34  -2.10378505857710E-09   6.21739519731347E-18   0.00000000000000E+00   0.00000000000000E+00
      0.00000000000000E+00   0.00000000000000E+00   0.00000000000000E+00   0.00000000000000E+00   0.00000000000000E+00
      1.81138649965967E-18   0.00000000000000E+00   0.00000000000000E+00   0.00000000000000E+00   0.00000000000000E+00
      2.87090000625258E-18  -9.16843439444005E-34   2.87090000625258E-18  -1.49364083057563E-17   1.12917482206002E-02
      1.12917478825030E-02   0.00000000000000E+00   0.00000000000000E+00   2.10378505570620E-09   3.68483779099710E-34
      2.10378505570620E-09   6.90762660878310E-18
      1.53487341719258E-02
      0.00000000000000E+00   3.67293737557979E-10   0.00000000000000E+00   0.00000000000000E+00  -2.30347061025492E-09
      5.33172610927121E-34  -2.30347061025492E-09   6.21559912090173E-18   0.00000000000000E+00   0.00000000000000E+00
      0.00000000000000E+00   0.00000000000000E+00   0.00000000000000E+00   0.00000000000000E+00   0.00000000000000E+00
      1.78025694302218E-18   0.00000000000000E+00   0.00000000000000E+00   0.00000000000000E+00   0.00000000000000E+00
      1.88650379667932E-18  -8.80193994058385E-34   1.88650379667932E-18  -1.49353321436746E-17   1.31999113878562E-02
      1.31999110176705E-02   0.00000000000000E+00   0.00000000000000E+00   2.30347060836841E-09   3.47021383131263E-34
      2.30347060836841E-09   6.93947607975064E-18
      1.77746160279722E-02
      0.00000000000000E+00   3.96585433703240E-10   0.00000000000000E+00   0.00000000000000E+00  -2.48717651354484E-09
      5.36858079763674E-34  -2.48717651354484E-09   6.21363594063911E-18   0.00000000000000E+00   0.00000000000000E+00
      0.00000000000000E+00   0.00000000000000E+00   0.00000000000000E+00   0.00000000000000E+00   0.00000000000000E+00
      1.74623552985813E-18   0.00000000000000E+00   0.00000000000000E+00   0.00000000000000E+00   0.00000000000000E+00
      9.18459574374096E-19  -8.51756443849749E-34   9.18459574374095E-19  -1.49341865949696E-17   1.52861697840561E-02
      1.52861693843563E-02   0.00000000000000E+00   0.00000000000000E+00   2.48717651262638E-09   3.14898364086074E-34
      2.48717651262638E-09   6.97431512447238E-18
      2.04269135239163E-02
      0.00000000000000E+00   4.23031531740498E-10   0.00000000000000E+00   0.00000000000000E+00  -2.65308219206721E-09
      5.26180304512323E-34  -2.65308219206721E-09   6.21149014013252E-18   0.00000000000000E+00   0.00000000000000E+00
      0.00000000000000E+00   0.00000000000000E+00   0.00000000000000E+00   0.00000000000000E+00   0.00000000000000E+00
      1.70905451259835E-18   0.00000000000000E+00   0.00000000000000E+00   0.00000000000000E+00   0.00000000000000E+00
     -1.51953483276977E-18  -8.27927549304995E-34  -1.51953483276977E-18  -1.49329702738351E-17   1.75671456305680E-02
      1.75671452042242E-02   0.00000000000000E+00   0.00000000000000E+00   2.65308219358674E-09   3.01747244792672E-34
      2.65308219358674E-09   7.01242562110412E-18
      2.33267587861485E-02
      0.00000000000000E+00   4.46434489649654E-10   0.00000000000000E+00   0.00000000000000E+00  -2.79997033928582E-09
      4.86903330107265E-34  -2.79997033928582E-09   6.20914476395146E-18   0.00000000000000E+00   0.00000000000000E+00
      0.00000000000000E+00   0.00000000000000E+00   0.00000000000000E+00   0.00000000000000E+00   0.00000000000000E+00
      1.66842144424570E-18   0.00000000000000E+00   0.00000000000000E+00   0.00000000000000E+00   0.00000000000000E+00
      1.39144458627437E-18  -7.68435720398906E-34   1.39144458627437E-18  -1.49316823957943E-17   2.00610125560877E-02
      2.00610121061696E-02   0.00000000000000E+00   0.00000000000000E+00   2.79997033789438E-09   2.81532390291642E-34
      2.79997033789438E-09   7.05411618759713E-18
      2.64972562728556E-02
      0.00000000000000E+00   4.66719234890694E-10   0.00000000000000E+00   0.00000000000000E+00  -2.92739522772419E-09
      4.81821213959370E-34  -2.92739522772419E-09   6.20658128346819E-18   0.00000000000000E+00   0.00000000000000E+00
      0.00000000000000E+00   0.00000000000000E+00   0.00000000000000E+00   0.00000000000000E+00   0.00000000000000E+00
      1.62401689487987E-18   0.00000000000000E+00   0.00000000000000E+00   0.00000000000000E+00   0.00000000000000E+00
     -4.18204067529239E-18  -7.39820010004855E-34  -4.18204067529239E-18  -1.49303229066927E-17   2.27876403946559E-02
      2.27876399243092E-02   0.00000000000000E+00   0.00000000000000E+00   2.92739523190623E-09   2.57998796045487E-34
      2.92739523190623E-09   7.09972472834471E-18
      2.99636668583222E-02
      0.00000000000000E+00   4.83957408465170E-10   0.00000000000000E+00   0.00000000000000E+00  -3.03583344468274E-09
      5.21036358912050E-34  -3.03583344468274E-09   6.20377944999331E-18   0.00000000000000E+00   0.00000000000000E+00
      0.00000000000000E+00   0.00000000000000E+00   0.00000000000000E+00   0.00000000000000E+00   0.00000000000000E+00
      1.57549195269435E-18   0.00000000000000E+00   0.00000000000000E+00   0.00000000000000E+00   0.00000000000000E+00
     -5.09502580075122E-18  -7.36351736305778E-34  -5.09502580075122E-18  -1.49288926237610E-17   2.57687534981571E-02
      2.57687530104564E-02   0.00000000000000E+00   0.00000000000000E+00   3.03583344977777E-09   2.15315377393728E-34
      3.03583344977777E-09   7.14962122107336E-18
      3.37536090984323E-02
      0.00000000000000E+00   4.98384718515860E-10   0.00000000000000E+00   0.00000000000000E+00  -3.12679210550208E-09
      4.77244782573157E-34  -3.12679210550208E-09   6.20071713396918E-18   0.00000000000000E+00   0.00000000000000E+00
      0.00000000000000E+00   0.00000000000000E+00   0.00000000000000E+00   0.00000000000000E+00   0.00000000000000E+00
      1.52246548718733E-18   0.00000000000000E+00   0.00000000000000E+00   0.00000000000000E+00   0.00000000000000E+00
      1.77617043420260E-18  -6.69212863273659E-34   1.77617043420260E-18  -1.49273933860892E-17   2.90281038246517E-02
      2.90281033224351E-02   0.00000000000000E+00   0.00000000000000E+00   3.12679210372590E-09   1.91968080700501E-34
      3.12679210372590E-09   7.20421076493264E-18
      3.78972792809526E-02
      0.00000000000000E+00   5.10406606472962E-10   0.00000000000000E+00   0.00000000000000E+00  -3.20284238868129E-09
      5.37269719613414E-34  -3.20284238868129E-09   6.19737014873688E-18   0.00000000000000E+00   0.00000000000000E+00
      0.00000000000000E+00   0.00000000000000E+00   0.00000000000000E+00   0.00000000000000E+00   0.00000000000000E+00
      1.46452114671450E-18   0.00000000000000E+00   0.00000000000000E+00   0.00000000000000E+00   0.00000000000000E+00
     -3.97818427155811E-18  -6.96900389816346E-34  -3.97818427155812E-18  -1.49258282066448E-17   3.25916601816192E-02
      3.25916596673179E-02   0.00000000000000E+00   0.00000000000000E+00   3.20284239265948E-09   1.59630670202932E-34
      3.20284239265948E-09   7.26393691119342E-18
      4.24276920138415E-02
      0.00000000000000E+00   5.20584749669482E-10   0.00000000000000E+00   0.00000000000000E+00  -3.26753335015667E-09
      5.12328468552867E-34  -3.26753335015667E-09   6.19371205807864E-18   0.00000000000000E+00   0.00000000000000E+00
      0.00000000000000E+00   0.00000000000000E+00   0.00000000000000E+00   0.00000000000000E+00   0.00000000000000E+00
      1.40120407212522E-18   0.00000000000000E+00   0.00000000000000E+00   0.00000000000000E+00   0.00000000000000E+00
      3.64002660883164E-18  -6.55961554736718E-34   3.64002660883163E-18  -1.49242014330280E-17   3.64878151319037E-02
      3.64878146073852E-02   0.00000000000000E+00   0.00000000000000E+00   3.26753334651664E-09   1.43633086183850E-34
      3.26753334651664E-09   7.32928530282413E-18
      4.73809432684667E-02
      0.00000000000000E+00   5.29597317848387E-10   0.00000000000000E+00   0.00000000000000E+00  -3.32514022127222E-09
      4.79604126468325E-34  -3.32514022127222E-09   6.18971396627787E-18   0.00000000000000E+00   0.00000000000000E+00
      0.00000000000000E+00   0.00000000000000E+00   0.00000000000000E+00   0.00000000000000E+00   0.00000000000000E+00
      1.33201729612524E-18   0.00000000000000E+00   0.00000000000000E+00   0.00000000000000E+00   0.00000000000000E+00
      3.42257985640838E-18  -5.99038715939689E-34   3.42257985640838E-18  -1.49225189076347E-17   4.07476112108814E-02
      4.07476106773331E-02   0.00000000000000E+00   0.00000000000000E+00   3.32514021784965E-09   1.19434589471364E-34
      3.32514021784965E-09   7.40078764523161E-18
      5.27964979735236E-02
      0.00000000000000E+00   5.38161216059910E-10   0.00000000000000E+00   0.00000000000000E+00  -3.38017566403604E-09
      5.17332016870259E-34  -3.38017566403604E-09   6.18534429064267E-18   0.00000000000000E+00   0.00000000000000E+00
      0.00000000000000E+00   0.00000000000000E+00   0.00000000000000E+00   0.00000000000000E+00   0.00000000000000E+00
      1.25641781549279E-18   0.00000000000000E+00   0.00000000000000E+00   0.00000000000000E+00   0.00000000000000E+00
     -1.02438736200511E-17  -6.22988947298503E-34  -1.02438736200511E-17  -1.49207881451034E-17   4.54049882572303E-02
      4.54049877151202E-02   0.00000000000000E+00   0.00000000000000E+00   3.38017567427991E-09   1.05656930428244E-34
      3.38017567427991E-09   7.47902603896797E-18
      5.87175044510525E-02
      0.00000000000000E+00   5.46928324965567E-10   0.00000000000000E+00   0.00000000000000E+00  -3.43673188771796E-09
      4.95492128767703E-34  -3.43673188771796E-09   6.18056851440528E-18   0.00000000000000E+00   0.00000000000000E+00
      0.00000000000000E+00   0.00000000000000E+00   0.00000000000000E+00   0.00000000000000E+00   0.00000000000000E+00
      1.17381232161562E-18   0.00000000000000E+00   0.00000000000000E+00   0.00000000000000E+00   0.00000000000000E+00
      1.12544820643176E-18  -5.81888177138588E-34   1.12544820643176E-18  -1.49190185396894E-17   5.04970538279052E-02
      5.04970532770479E-02   0.00000000000000E+00   0.00000000000000E+00   3.43673188659251E-09   8.63960483708850E-35
      3.43673188659251E-09   7.56463770366847E-18
      6.51516648233006E-02
      0.00000000000000E+00   5.56359360096414E-10   0.00000000000000E+00   0.00000000000000E+00  -3.49769205425950E-09
      5.28788889508581E-34  -3.49769205425950E-09   6.17538073711847E-18   0.00000000000000E+00   0.00000000000000E+00
      0.00000000000000E+00   0.00000000000000E+00   0.00000000000000E+00   0.00000000000000E+00   0.00000000000000E+00
      1.08410275652924E-18   0.00000000000000E+00   0.00000000000000E+00   0.00000000000000E+00   0.00000000000000E+00
     -1.00847276520391E-18  -6.01275581339959E-34  -1.00847276520391E-18  -1.49172321388505E-17   5.60304317480385E-02
      5.60304311877891E-02   0.00000000000000E+00   0.00000000000000E+00   3.49769205526797E-09   7.24866918313774E-35
      3.49769205526797E-09   7.65774864520272E-18
      7.21434524278101E-02
      0.00000000000000E+00   5.66818853635736E-10   0.00000000000000E+00   0.00000000000000E+00  -3.56536020269032E-09
      5.07656748558062E-34  -3.56536020269032E-09   6.16974542944493E-18   0.00000000000000E+00   0.00000000000000E+00
      0.00000000000000E+00   0.00000000000000E+00   0.00000000000000E+00   0.00000000000000E+00   0.00000000000000E+00
      9.86678805003768E-19   0.00000000000000E+00   0.00000000000000E+00   0.00000000000000E+00   0.00000000000000E+00
     -7.50225928201654E-19  -5.59606135442166E-34  -7.50225928201654E-19  -1.49154419695995E-17   6.20433690879167E-02
      6.20433685172633E-02   0.00000000000000E+00   0.00000000000000E+00   3.56536020344055E-09   5.19493868841038E-35
      3.56536020344055E-09   7.75901773515078E-18
      7.97411949580438E-02
      0.00000000000000E+00   5.78514901322288E-10   0.00000000000000E+00   0.00000000000000E+00  -3.64106397765688E-09
      4.82640944103920E-34  -3.64106397765688E-09   6.16362401525176E-18   0.00000000000000E+00   0.00000000000000E+00
      0.00000000000000E+00   0.00000000000000E+00   0.00000000000000E+00   0.00000000000000E+00   0.00000000000000E+00
      8.80877883356495E-19   0.00000000000000E+00   0.00000000000000E+00   0.00000000000000E+00   0.00000000000000E+00
      1.66979498216167E-18  -5.27677138916447E-34   1.66979498216167E-18  -1.49136633819281E-17   6.85774276639177E-02
      6.85774270816383E-02   0.00000000000000E+00   0.00000000000000E+00   3.64106397598708E-09   4.50361948125271E-35
      3.64106397598708E-09   7.86916148331981E-18
      8.79974085075645E-02
      0.00000000000000E+00   5.91521184964535E-10   0.00000000000000E+00   0.00000000000000E+00  -3.72528070736438E-09
      5.08770937666732E-34  -3.72528070736438E-09   6.15697461379932E-18   0.00000000000000E+00   0.00000000000000E+00
      0.00000000000000E+00   0.00000000000000E+00   0.00000000000000E+00   0.00000000000000E+00   0.00000000000000E+00
      7.65980742128749E-19   0.00000000000000E+00   0.00000000000000E+00   0.00000000000000E+00   0.00000000000000E+00
      1.30494766117059E-18  -5.42094504167464E-34   1.30494766117059E-18  -1.49119142970564E-17   7.56777713165054E-02
      7.56777707213010E-02   0.00000000000000E+00   0.00000000000000E+00   3.72528070605943E-09   3.33235665007326E-35
      3.72528070605943E-09   7.98895894112831E-18
      9.69691605647102E-02
      0.00000000000000E+00   6.05890739421236E-10   0.00000000000000E+00   0.00000000000000E+00  -3.81838280649718E-09
      4.80950147374868E-34  -3.81838280649718E-09   6.14975174285826E-18   0.00000000000000E+00   0.00000000000000E+00
      0.00000000000000E+00   0.00000000000000E+00   0.00000000000000E+00   0.00000000000000E+00   0.00000000000000E+00
      6.41206626491104E-19   0.00000000000000E+00   0.00000000000000E+00   0.00000000000000E+00   0.00000000000000E+00
      3.32929935789836E-19  -5.07007216827305E-34   3.32929935789836E-19  -1.49102153546131E-17   8.33934780856508E-02
      8.33934774761722E-02   0.00000000000000E+00   0.00000000000000E+00   3.81838280616425E-09   2.60570694524375E-35
      3.81838280616425E-09   8.11925698526377E-18
      1.06718464466809E-01
      0.00000000000000E+00   6.21750020149811E-10   0.00000000000000E+00   0.00000000000000E+00  -3.92123131339296E-09
      4.71615149544962E-34  -3.92123131339296E-09   6.14190600084251E-18   0.00000000000000E+00   0.00000000000000E+00
      0.00000000000000E+00   0.00000000000000E+00   0.00000000000000E+00   0.00000000000000E+00   0.00000000000000E+00
      5.05708021627545E-19   0.00000000000000E+00   0.00000000000000E+00   0.00000000000000E+00   0.00000000000000E+00
     -1.43268787205880E-18  -4.91445803171491E-34  -1.43268787205880E-18  -1.49085900359189E-17   9.17778794414554E-02
      9.17778788162380E-02   0.00000000000000E+00   0.00000000000000E+00   3.92123131482565E-09   1.98306536265296E-35
      3.92123131482565E-09   8.26097601344875E-18
      1.16718464466809E-01
      0.00000000000000E+00   6.38307397558880E-10   0.00000000000000E+00   0.00000000000000E+00  -4.02871661426733E-09
      4.91792958894668E-34  -4.02871661426733E-09   6.13386168027110E-18   0.00000000000000E+00   0.00000000000000E+00
      0.00000000000000E+00   0.00000000000000E+00   0.00000000000000E+00   0.00000000000000E+00   0.00000000000000E+00
      3.66815951976758E-19   0.00000000000000E+00   0.00000000000000E+00   0.00000000000000E+00   0.00000000000000E+00
     -2.12061660022855E-18  -5.05458551078347E-34  -2.12061660022856E-18  -1.49071442327089E-17   1.00377879441455E-01
      1.00377878799821E-01   0.00000000000000E+00   0.00000000000000E+00   4.02871661638795E-09   1.36655921836790E-35
      4.02871661638795E-09   8.40646660046106E-18
      1.26718464466809E-01
      0.00000000000000E+00   6.55201825352111E-10   0.00000000000000E+00   0.00000000000000E+00  -4.13849820721548E-09
      5.18051845118349E-34  -4.13849820721548E-09   6.12582040640890E-18   0.00000000000000E+00   0.00000000000000E+00
      0.00000000000000E+00   0.00000000000000E+00   0.00000000000000E+00   0.00000000000000E+00   0.00000000000000E+00
      2.28010864120857E-19   0.00000000000000E+00   0.00000000000000E+00   0.00000000000000E+00   0.00000000000000E+00
      1.41200656126638E-18  -5.27546231575559E-34   1.41200656126638E-18  -1.49059061947876E-17   1.08977879441455E-01
      1.08977878783073E-01   0.00000000000000E+00   0.00000000000000E+00   4.13849820580347E-09   9.49438645720944E-36
      4.13849820580347E-09   8.55207492425786E-18
      1.36718464466809E-01
      0.00000000000000E+00   6.72474648828270E-10   0.00000000000000E+00   0.00000000000000E+00  -4.25084292128042E-09
      4.60769457395594E-34  -4.25084292128042E-09   6.11778203838932E-18   0.00000000000000E+00   0.00000000000000E+00
      0.00000000000000E+00   0.00000000000000E+00   0.00000000000000E+00   0.00000000000000E+00   0.00000000000000E+00
      8.92886497603561E-20   0.00000000000000E+00   0.00000000000000E+00   0.00000000000000E+00   0.00000000000000E+00
     -6.16570150557314E-19  -4.67666767446315E-34  -6.16570150557314E-19  -1.49048612302523E-17   1.17577879441455E-01
      1.17577878765945E-01   0.00000000000000E+00   0.00000000000000E+00   4.25084292189698E-09   6.89731005072117E-36
      4.25084292189698E-09   8.69779054210262E-18
      1.46718464466809E-01
      0.00000000000000E+00   6.90156349907457E-10   0.00000000000000E+00   0.00000000000000E+00  -4.36594817020839E-09
      5.11820342448822E-34  -4.36594817020839E-09   6.10974644939922E-18   0.00000000000000E+00   0.00000000000000E+00
      0.00000000000000E+00   0.00000000000000E+00   0.00000000000000E+00   0.00000000000000E+00   0.00000000000000E+00
     -4.93540958826542E-20   0.00000000000000E+00   0.00000000000000E+00   0.00000000000000E+00   0.00000000000000E+00
     -1.26310223837982E-18  -5.17229849403975E-34  -1.26310223837982E-18  -1.49039961471119E-17   1.26177879441455E-01
      1.26177878748409E-01   0.00000000000000E+00   0.00000000000000E+00   4.36594817147149E-09   5.40950695515329E-36
      4.36594817147149E-09   8.84360379359539E-18
      1.56718464466809E-01
      0.00000000000000E+00   7.08265501027974E-10   0.00000000000000E+00   0.00000000000000E+00  -4.48393519031550E-09
      5.23386310718576E-34  -4.48393519031550E-09   6.10171352575846E-18   0.00000000000000E+00   0.00000000000000E+00
      0.00000000000000E+00   0.00000000000000E+00   0.00000000000000E+00   0.00000000000000E+00   0.00000000000000E+00
     -1.87920202429250E-19   0.00000000000000E+00   0.00000000000000E+00   0.00000000000000E+00   0.00000000000000E+00
      5.19286412135212E-19  -5.27046049789472E-34   5.19286412135212E-19  -1.49032990322285E-17   1.34777879441455E-01
      1.34777878730451E-01   0.00000000000000E+00   0.00000000000000E+00   4.48393518979622E-09   3.65973907089626E-36
      4.48393518979622E-09   8.98950570889933E-18
      1.66718464466809E-01
      0.00000000000000E+00   7.26811433699385E-10   0.00000000000000E+00   0.00000000000000E+00  -4.60486676517966E-09
      5.10273762219713E-34  -4.60486676517966E-09   6.09368316800756E-18   0.00000000000000E+00   0.00000000000000E+00
      0.00000000000000E+00   0.00000000000000E+00   0.00000000000000E+00   0.00000000000000E+00   0.00000000000000E+00
     -3.26411992057797E-19   0.00000000000000E+00   0.00000000000000E+00   0.00000000000000E+00   0.00000000000000E+00
     -1.96359182684998E-18  -5.13079088578263E-34  -1.96359182684998E-18  -1.49027591127422E-17   1.43377879441455E-01
      1.43377878712064E-01   0.00000000000000E+00   0.00000000000000E+00   4.60486676714324E-09   2.80532635855061E-36
      4.60486676714324E-09   9.13548793679242E-18
      1.76718464466809E-01
      0.00000000000000E+00   7.45798772599121E-10   0.00000000000000E+00   0.00000000000000E+00  -4.72877658038123E-09
      4.96470596563636E-34  -4.72877658038123E-09   6.08565529355610E-18   0.00000000000000E+00   0.00000000000000E+00
      0.00000000000000E+00   0.00000000000000E+00   0.00000000000000E+00   0.00000000000000E+00   0.00000000000000E+00
     -4.64831311089836E-19   0.00000000000000E+00   0.00000000000000E+00   0.00000000000000E+00   0.00000000000000E+00
     -1.01236516619247E-18  -4.98536342410307E-34  -1.01236516619248E-18  -1.49023666703629E-17   1.51977879441455E-01
      1.51977878693249E-01   0.00000000000000E+00   0.00000000000000E+00   4.72877658139359E-09   2.06574584667094E-36
      4.72877658139359E-09   9.28154268789672E-18
      1.86718464466809E-01
      0.00000000000000E+00   7.65231950289017E-10   0.00000000000000E+00   0.00000000000000E+00  -4.85569762712322E-09