DF-ISE text

Info {
  version   = 1.0
  type      = xyplot
  datasets  = [
    "time"
    "source OuterVoltage" "source InnerVoltage" "source QuasiFermiPotential" "source DisplacementCurrent" "source eCurrent"
    "source hCurrent" "source TotalCurrent" "source Charge" "gate OuterVoltage" "gate InnerVoltage"
    "gate QuasiFermiPotential" "gate DisplacementCurrent" "gate eCurrent" "gate hCurrent" "gate TotalCurrent"
    "gate Charge" "substrate OuterVoltage" "substrate InnerVoltage" "substrate QuasiFermiPotential" "substrate DisplacementCurrent"
    "substrate eCurrent" "substrate hCurrent" "substrate TotalCurrent" "substrate Charge" "drain OuterVoltage"
    "drain InnerVoltage" "drain QuasiFermiPotential" "drain DisplacementCurrent" "drain eCurrent" "drain hCurrent"
    "drain TotalCurrent" "drain Charge" ]
  functions = [
    Time
    OuterVoltage InnerVoltage QuasiFermiPotential DisplacementCurrent eCurrent
    hCurrent TotalCurrent Charge OuterVoltage InnerVoltage
    QuasiFermiPotential DisplacementCurrent eCurrent hCurrent TotalCurrent
    Charge OuterVoltage InnerVoltage QuasiFermiPotential DisplacementCurrent
    eCurrent hCurrent TotalCurrent Charge OuterVoltage
    InnerVoltage QuasiFermiPotential DisplacementCurrent eCurrent hCurrent
    TotalCurrent Charge ]
}

Data {
      0.00000000000000E+00
      0.00000000000000E+00   0.00000000000000E+00   0.00000000000000E+00   0.00000000000000E+00  -4.29050361131091E-21
      2.11187349934793E-34  -4.29050361131070E-21   6.55203581360414E-18   0.00000000000000E+00   0.00000000000000E+00
      0.00000000000000E+00   0.00000000000000E+00   0.00000000000000E+00   0.00000000000000E+00   0.00000000000000E+00
      3.85262204579245E-18   0.00000000000000E+00   0.00000000000000E+00   0.00000000000000E+00   0.00000000000000E+00
      3.43663064736269E-21  -3.94354738249315E-34   3.43663064736229E-21  -1.54758575582266E-17   0.00000000000000E+00
      0.00000000000000E+00   0.00000000000000E+00   0.00000000000000E+00   8.53872963948199E-22   1.83167388314522E-34
      8.53872963948382E-22   5.07119969883003E-18
      0.00000000000000E+00
      0.00000000000000E+00   0.00000000000000E+00   0.00000000000000E+00   0.00000000000000E+00  -3.38431602994625E-18
      2.27438709227265E-34  -3.38431602994625E-18   6.54752169073925E-18   0.00000000000000E+00   0.00000000000000E+00
      0.00000000000000E+00   0.00000000000000E+00   0.00000000000000E+00   0.00000000000000E+00   0.00000000000000E+00
      3.84386608630480E-18   0.00000000000000E+00   0.00000000000000E+00   0.00000000000000E+00   0.00000000000000E+00
      3.57918542631112E-18  -4.10036681891434E-34   3.57918542631112E-18  -1.54589063180950E-17   0.00000000000000E+00
      0.00000000000000E+00   0.00000000000000E+00   0.00000000000000E+00  -1.94869396364868E-19   1.82597972664169E-34
     -1.94869396364868E-19   5.06751854105090E-18
      1.00000000000000E-03
      0.00000000000000E+00   1.41897063648140E-11   0.00000000000000E+00   0.00000000000000E+00  -7.62898880106773E-11
      1.89079449286519E-34  -7.62898880106773E-11   6.54699991911369E-18   0.00000000000000E+00   0.00000000000000E+00
      0.00000000000000E+00   0.00000000000000E+00   0.00000000000000E+00   0.00000000000000E+00   0.00000000000000E+00
      3.83421773219290E-18   0.00000000000000E+00   0.00000000000000E+00   0.00000000000000E+00   0.00000000000000E+00
     -2.03947846058269E-18  -3.73299794320879E-34  -2.03947846058269E-18  -1.54588522204753E-17   8.60000000000000E-04
      8.59999985813880E-04   0.00000000000000E+00   0.00000000000000E+00   7.62898900501557E-11   1.84220345034360E-34
      7.62898900501557E-11   5.07763456916874E-18
      2.08666666666667E-03
      0.00000000000000E+00   2.87175610523963E-11   0.00000000000000E+00   0.00000000000000E+00  -1.54393625912169E-10
      2.44586874186103E-34  -1.54393625912169E-10   6.54643297616924E-18   0.00000000000000E+00   0.00000000000000E+00
      0.00000000000000E+00   0.00000000000000E+00   0.00000000000000E+00   0.00000000000000E+00   0.00000000000000E+00
      3.82373513077589E-18   0.00000000000000E+00   0.00000000000000E+00   0.00000000000000E+00   0.00000000000000E+00
      4.28626174469247E-16  -4.16569832636244E-34   4.28626174469247E-16  -1.54587984121787E-17   1.79453333333333E-03
      1.79453330462314E-03   0.00000000000000E+00   0.00000000000000E+00   1.54393197285994E-10   1.71982958450141E-34
      1.54393197285994E-10   5.08863030523361E-18
      3.28200000000000E-03
      0.00000000000000E+00   4.36424296163267E-11   0.00000000000000E+00   0.00000000000000E+00  -2.34625512290509E-10
      2.41236377452931E-34  -2.34625512290509E-10   6.54580939701589E-18   0.00000000000000E+00   0.00000000000000E+00
      0.00000000000000E+00   0.00000000000000E+00   0.00000000000000E+00   0.00000000000000E+00   0.00000000000000E+00
      3.81220657096735E-18   0.00000000000000E+00   0.00000000000000E+00   0.00000000000000E+00   0.00000000000000E+00
      6.08210139745433E-16  -4.31261631566510E-34   6.08210139745433E-16  -1.54587451372919E-17   2.82252000000000E-03
      2.82251995636914E-03   0.00000000000000E+00   0.00000000000000E+00   2.34624904080369E-10   1.90025254113579E-34
      2.34624904080369E-10   5.10072916930865E-18
      4.59686666666667E-03
      0.00000000000000E+00   5.88361046494964E-11   0.00000000000000E+00   0.00000000000000E+00  -3.16295320756068E-10
      2.45803655238894E-34  -3.16295320756068E-10   6.54512352908920E-18   0.00000000000000E+00   0.00000000000000E+00
      0.00000000000000E+00   0.00000000000000E+00   0.00000000000000E+00   0.00000000000000E+00   0.00000000000000E+00
      3.79952789346855E-18   0.00000000000000E+00   0.00000000000000E+00   0.00000000000000E+00   0.00000000000000E+00
      8.66445904146855E-16  -4.24070912341574E-34   8.66445904146855E-16  -1.54586935949656E-17   3.95330533333333E-03
      3.95330527451333E-03   0.00000000000000E+00   0.00000000000000E+00   3.16294454310164E-10   1.78267257102681E-34
      3.16294454310164E-10   5.11404217240789E-18
      6.04322000000000E-03
      0.00000000000000E+00   7.41529628595779E-11   0.00000000000000E+00   0.00000000000000E+00  -3.98619438437125E-10
      2.31655274274339E-34  -3.98619438437125E-10   6.54436915642841E-18   0.00000000000000E+00   0.00000000000000E+00
      0.00000000000000E+00   0.00000000000000E+00   0.00000000000000E+00   0.00000000000000E+00   0.00000000000000E+00
      3.78558460039109E-18   0.00000000000000E+00   0.00000000000000E+00   0.00000000000000E+00   0.00000000000000E+00
      1.21838872508027E-15  -4.27688838817719E-34   1.21838872508027E-15  -1.54586453151327E-17   5.19716920000000E-03
      5.19716912586793E-03   0.00000000000000E+00   0.00000000000000E+00   3.98618220048400E-10   1.96033564543379E-34
      3.98618220048400E-10   5.12869155831314E-18
      7.63420866666667E-03
      0.00000000000000E+00   8.94292732335419E-11   0.00000000000000E+00   0.00000000000000E+00  -4.80716727240453E-10
      2.42765918408306E-34  -4.80716727240453E-10   6.54353944360717E-18   0.00000000000000E+00   0.00000000000000E+00
      0.00000000000000E+00   0.00000000000000E+00   0.00000000000000E+00   0.00000000000000E+00   0.00000000000000E+00
      3.77025083328615E-18   0.00000000000000E+00   0.00000000000000E+00   0.00000000000000E+00   0.00000000000000E+00
      6.71824347394961E-19  -3.92269072501234E-34   6.71824347394960E-19  -1.54586022267149E-17   6.56541945333333E-03
      6.56541936393017E-03   0.00000000000000E+00   0.00000000000000E+00   4.80716726568628E-10   1.49503154092929E-34
      4.80716726568628E-10   5.14481194982161E-18
      9.37368960888889E-03
      0.00000000000000E+00   1.04400030474288E-10   0.00000000000000E+00   0.00000000000000E+00  -5.61164439979240E-10
      2.33544544079555E-34  -5.61164439979240E-10   6.54263240445467E-18   0.00000000000000E+00   0.00000000000000E+00
      0.00000000000000E+00   0.00000000000000E+00   0.00000000000000E+00   0.00000000000000E+00   0.00000000000000E+00
      3.75349043377180E-18   0.00000000000000E+00   0.00000000000000E+00   0.00000000000000E+00   0.00000000000000E+00
      1.45808433781143E-18  -3.89738305935780E-34   1.45808433781143E-18  -1.54585669156594E-17   8.06137306364445E-03
      8.06137295927564E-03   0.00000000000000E+00   0.00000000000000E+00   5.61164438521155E-10   1.56193761856225E-34
      5.61164438521155E-10   5.16244407743301E-18
      1.12755221057185E-02
      0.00000000000000E+00   1.18890388509460E-10   0.00000000000000E+00   0.00000000000000E+00  -6.39023394757174E-10
      2.29454046999135E-34  -6.39023394757174E-10   6.54164084025740E-18   0.00000000000000E+00   0.00000000000000E+00
      0.00000000000000E+00   0.00000000000000E+00   0.00000000000000E+00   0.00000000000000E+00   0.00000000000000E+00
      3.73517100120950E-18   0.00000000000000E+00   0.00000000000000E+00   0.00000000000000E+00   0.00000000000000E+00
     -1.54630441436385E-19  -3.88262242479667E-34  -1.54630441436386E-19  -1.54585421402702E-17   9.69694901091793E-03
      9.69694889206390E-03   0.00000000000000E+00   0.00000000000000E+00   6.39023394911806E-10   1.58808195480532E-34
      6.39023394911806E-10   5.18173029880330E-18
      1.33548589689189E-02
      0.00000000000000E+00   1.32724072827195E-10   0.00000000000000E+00   0.00000000000000E+00  -7.13348271508834E-10
      2.05617460288710E-34  -7.13348271508834E-10   6.54055688291025E-18   0.00000000000000E+00   0.00000000000000E+00
      0.00000000000000E+00   0.00000000000000E+00   0.00000000000000E+00   0.00000000000000E+00   0.00000000000000E+00
      3.71514788835419E-18   0.00000000000000E+00   0.00000000000000E+00   0.00000000000000E+00   0.00000000000000E+00
      1.29420142791819E-18  -3.50239595901011E-34   1.29420142791819E-18  -1.54585312372044E-17   1.14851787132703E-02
      1.14851785805876E-02   0.00000000000000E+00   0.00000000000000E+00   7.13348270214632E-10   1.44622135612301E-34
      7.13348270214632E-10   5.20282646593991E-18
      1.56282672726847E-02
      0.00000000000000E+00   1.45730117910666E-10   0.00000000000000E+00   0.00000000000000E+00  -7.83223283606774E-10
      2.05878730994538E-34  -7.83223283606774E-10   6.53937193263393E-18   0.00000000000000E+00   0.00000000000000E+00
      0.00000000000000E+00   0.00000000000000E+00   0.00000000000000E+00   0.00000000000000E+00   0.00000000000000E+00
      3.69326307050971E-18   0.00000000000000E+00   0.00000000000000E+00   0.00000000000000E+00   0.00000000000000E+00
     -1.99391507739531E-18  -3.34435925308765E-34  -1.99391507739531E-18  -1.54585382177547E-17   1.34403098545088E-02
      1.34403097088248E-02   0.00000000000000E+00   0.00000000000000E+00   7.83223285600689E-10   1.28557194314227E-34
      7.83223285600689E-10   5.22590321461099E-18
      1.81138603514686E-02
      0.00000000000000E+00   1.57751058957885E-10   0.00000000000000E+00   0.00000000000000E+00  -8.47806541408494E-10
      2.02776299106024E-34  -8.47806541408494E-10   6.53807658986298E-18   0.00000000000000E+00   0.00000000000000E+00
      0.00000000000000E+00   0.00000000000000E+00   0.00000000000000E+00   0.00000000000000E+00   0.00000000000000E+00
      3.66934390974946E-18   0.00000000000000E+00   0.00000000000000E+00   0.00000000000000E+00   0.00000000000000E+00
      5.13928784784213E-19  -3.15796877719562E-34   5.13928784784212E-19  -1.54585678769980E-17   1.55779199022630E-02
      1.55779197445622E-02   0.00000000000000E+00   0.00000000000000E+00   8.47806540894565E-10   1.13020578613539E-34
      8.47806540894565E-10   5.25114737738554E-18
      2.08314421176057E-02
      0.00000000000000E+00   1.68652739422736E-10   0.00000000000000E+00   0.00000000000000E+00  -9.06382538634803E-10
      2.26927676680079E-34  -9.06382538634803E-10   6.53666058069878E-18   0.00000000000000E+00   0.00000000000000E+00
      0.00000000000000E+00   0.00000000000000E+00   0.00000000000000E+00   0.00000000000000E+00   0.00000000000000E+00
      3.64320180229252E-18   0.00000000000000E+00   0.00000000000000E+00   0.00000000000000E+00   0.00000000000000E+00
     -6.09637992091077E-19  -3.25300419630812E-34  -6.09637992091077E-19  -1.54586259140817E-17   1.79150402211409E-02
      1.79150400525421E-02   0.00000000000000E+00   0.00000000000000E+00   9.06382539244441E-10   9.83727429507328E-35
      9.06382539244441E-10   5.27876353109040E-18
      2.38026648485822E-02
      0.00000000000000E+00   1.78334782238076E-10   0.00000000000000E+00   0.00000000000000E+00  -9.58418654492390E-10
      2.21491640571127E-34  -9.58418654492390E-10   6.53511267536614E-18   0.00000000000000E+00   0.00000000000000E+00
      0.00000000000000E+00   0.00000000000000E+00   0.00000000000000E+00   0.00000000000000E+00   0.00000000000000E+00
      3.61463069977054E-18   0.00000000000000E+00   0.00000000000000E+00   0.00000000000000E+00   0.00000000000000E+00
     -7.12126738685291E-19  -3.41175832263199E-34  -7.12126738685291E-19  -1.54587190673402E-17   2.04702917697807E-02
      2.04702915915027E-02   0.00000000000000E+00   0.00000000000000E+00   9.58418655204516E-10   1.19684191692072E-34
      9.58418655204516E-10   5.30897569220350E-18
      2.70512017011165E-02
      0.00000000000000E+00   1.86741619953301E-10   0.00000000000000E+00   0.00000000000000E+00  -1.00362428148940E-09
      2.35670453803898E-34  -1.00362428148940E-09   6.53342059894119E-18   0.00000000000000E+00   0.00000000000000E+00
      0.00000000000000E+00   0.00000000000000E+00   0.00000000000000E+00   0.00000000000000E+00   0.00000000000000E+00
      3.58340548939703E-18   0.00000000000000E+00   0.00000000000000E+00   0.00000000000000E+00   0.00000000000000E+00
      1.72096738159834E-18  -3.22268702112612E-34   1.72096738159834E-18  -1.54588552607777E-17   2.32640334629602E-02
      2.32640332762774E-02   0.00000000000000E+00   0.00000000000000E+00   1.00362427976843E-09   8.65982483087139E-35
      1.00362427976843E-09   5.34202917243948E-18
      3.06029353265541E-02
      0.00000000000000E+00   1.93872763345189E-10   0.00000000000000E+00   0.00000000000000E+00  -1.04200566260218E-09
      2.45233609548181E-34  -1.04200566260218E-09   6.53157093366865E-18   0.00000000000000E+00   0.00000000000000E+00
      0.00000000000000E+00   0.00000000000000E+00   0.00000000000000E+00   0.00000000000000E+00   0.00000000000000E+00
      3.54928022154981E-18   0.00000000000000E+00   0.00000000000000E+00   0.00000000000000E+00   0.00000000000000E+00
      1.05403745094064E-18  -3.33512446446665E-34   1.05403745094064E-18  -1.54590437654460E-17   2.63185243808365E-02
      2.63185241870237E-02   0.00000000000000E+00   0.00000000000000E+00   1.04200566154814E-09   8.82788368984838E-35
      1.04200566154814E-09   5.37819261022752E-18
      3.44861640903658E-02
      0.00000000000000E+00   1.99791305594418E-10   0.00000000000000E+00   0.00000000000000E+00  -1.07391136217402E-09
      2.14410997519811E-34  -1.07391136217402E-09   6.52954901195995E-18   0.00000000000000E+00   0.00000000000000E+00
      0.00000000000000E+00   0.00000000000000E+00   0.00000000000000E+00   0.00000000000000E+00   0.00000000000000E+00
      3.51198616538233E-18   0.00000000000000E+00   0.00000000000000E+00   0.00000000000000E+00   0.00000000000000E+00
     -2.98214612172794E-18  -2.89271593334048E-34  -2.98214612172794E-18  -1.54592953691078E-17   2.96581011177146E-02
      2.96581009179839E-02   0.00000000000000E+00   0.00000000000000E+00   1.07391136515616E-09   7.48605958142374E-35
      1.07391136515616E-09   5.41776019176549E-18
      3.87318275388000E-02
      0.00000000000000E+00   2.04628000838047E-10   0.00000000000000E+00   0.00000000000000E+00  -1.10005377068819E-09
      2.28970924064391E-34  -1.10005377068819E-09   6.52733879935050E-18   0.00000000000000E+00   0.00000000000000E+00
      0.00000000000000E+00   0.00000000000000E+00   0.00000000000000E+00   0.00000000000000E+00   0.00000000000000E+00
      3.47122967979241E-18   0.00000000000000E+00   0.00000000000000E+00   0.00000000000000E+00   0.00000000000000E+00
     -5.21243853243011E-18  -2.93975896124896E-34  -5.21243853243011E-18  -1.54596225595144E-17   3.33093716833680E-02
      3.33093714788012E-02   0.00000000000000E+00   0.00000000000000E+00   1.10005377590063E-09   6.50049720605053E-35
      1.10005377590063E-09   5.46105408037146E-18
      4.33737529090880E-02
      0.00000000000000E+00   2.08578663440396E-10   0.00000000000000E+00   0.00000000000000E+00  -1.12149382685392E-09
      2.29447998807120E-34  -1.12149382685392E-09   6.52492276643868E-18   0.00000000000000E+00   0.00000000000000E+00
      0.00000000000000E+00   0.00000000000000E+00   0.00000000000000E+00   0.00000000000000E+00   0.00000000000000E+00
      3.42668987463882E-18   0.00000000000000E+00   0.00000000000000E+00   0.00000000000000E+00   0.00000000000000E+00
     -9.87510345308746E-18  -2.84989426365621E-34  -9.87510345308746E-18  -1.54600397108204E-17   3.73014275018156E-02
      3.73014272932993E-02   0.00000000000000E+00   0.00000000000000E+00   1.12149383672903E-09   5.55414275585012E-35
      1.12149383672903E-09   5.50842706974293E-18
      4.84489246472695E-02
      0.00000000000000E+00   2.11890322975828E-10   0.00000000000000E+00   0.00000000000000E+00  -1.13956543189626E-09
      1.98812262464951E-34  -1.13956543189626E-09   6.52228174890497E-18   0.00000000000000E+00   0.00000000000000E+00
      0.00000000000000E+00   0.00000000000000E+00   0.00000000000000E+00   0.00000000000000E+00   0.00000000000000E+00
      3.37801605015200E-18   0.00000000000000E+00   0.00000000000000E+00   0.00000000000000E+00   0.00000000000000E+00
     -1.36696053534200E-17  -2.55275123374861E-34  -1.36696053534200E-17  -1.54605632803618E-17   4.16660751966518E-02
      4.16660749848261E-02   0.00000000000000E+00   0.00000000000000E+00   1.13956544556587E-09   5.64628609099100E-35
      1.13956544556587E-09   5.56026548130477E-18
      5.39977790810147E-02
      0.00000000000000E+00   2.14836882604200E-10   0.00000000000000E+00   0.00000000000000E+00  -1.15574442230140E-09
      1.98973202514198E-34  -1.15574442230140E-09   6.51939479462146E-18   0.00000000000000E+00   0.00000000000000E+00
      0.00000000000000E+00   0.00000000000000E+00   0.00000000000000E+00   0.00000000000000E+00   0.00000000000000E+00
      3.32482489073784E-18   0.00000000000000E+00   0.00000000000000E+00   0.00000000000000E+00   0.00000000000000E+00
     -2.08179607730246E-17  -2.44122217321188E-34  -2.08179607730246E-17  -1.54612120107868E-17   4.64380900096726E-02
      4.64380897949053E-02   0.00000000000000E+00   0.00000000000000E+00   1.15574444311936E-09   4.51490148069896E-35
      1.15574444311936E-09   5.61699232542758E-18
      6.00645265952427E-02
      0.00000000000000E+00   2.17687644940946E-10   0.00000000000000E+00   0.00000000000000E+00  -1.17148147790436E-09
      2.27845916768794E-34  -1.17148147790436E-09   6.51623899701867E-18   0.00000000000000E+00   0.00000000000000E+00
      0.00000000000000E+00   0.00000000000000E+00   0.00000000000000E+00   0.00000000000000E+00   0.00000000000000E+00
      3.26669739914440E-18   0.00000000000000E+00   0.00000000000000E+00   0.00000000000000E+00   0.00000000000000E+00
     -8.19731681906708E-17  -2.60966457186917E-34  -8.19731681906708E-17  -1.54620071455013E-17   5.16554928719087E-02
      5.16554926542989E-02   0.00000000000000E+00   0.00000000000000E+00   1.17148155987753E-09   3.31205404181230E-35
      1.17148155987753E-09   5.67907074933815E-18
      6.66975038774654E-02
      0.00000000000000E+00   2.20670468471512E-10   0.00000000000000E+00   0.00000000000000E+00  -1.18800016527561E-09
      2.31326701538979E-34  -1.18800016527561E-09   6.51278931382399E-18   0.00000000000000E+00   0.00000000000000E+00
      0.00000000000000E+00   0.00000000000000E+00   0.00000000000000E+00   0.00000000000000E+00   0.00000000000000E+00
      3.20317555778165E-18   0.00000000000000E+00   0.00000000000000E+00   0.00000000000000E+00   0.00000000000000E+00
     -1.38207687284139E-18  -2.60816415195201E-34  -1.38207687284139E-18  -1.54629726665141E-17   5.73598533346202E-02
      5.73598531140410E-02   0.00000000000000E+00   0.00000000000000E+00   1.18800016665769E-09   2.94897136562210E-35
      1.18800016665769E-09   5.74700779490845E-18
      7.39053391908140E-02
      0.00000000000000E+00   2.23914616586721E-10   0.00000000000000E+00   0.00000000000000E+00  -1.20599223212292E-09
      2.36516119187762E-34  -1.20599223212292E-09   6.50904136039821E-18   0.00000000000000E+00   0.00000000000000E+00
      0.00000000000000E+00   0.00000000000000E+00   0.00000000000000E+00   0.00000000000000E+00   0.00000000000000E+00
      3.13418185756431E-18   0.00000000000000E+00   0.00000000000000E+00   0.00000000000000E+00   0.00000000000000E+00
      9.59051031380205E-19  -2.59381995333838E-34   9.59051031380204E-19  -1.54641281287573E-17   6.35585917041000E-02
      6.35585914802950E-02   0.00000000000000E+00   0.00000000000000E+00   1.20599223116387E-09   2.28658761460764E-35
      1.20599223116387E-09   5.82090491079475E-18
      8.17378535646528E-02
      0.00000000000000E+00   2.27492115867921E-10   0.00000000000000E+00   0.00000000000000E+00  -1.22584332532678E-09
      2.22037755640338E-34  -1.22584332532678E-09   6.50496933301244E-18   0.00000000000000E+00   0.00000000000000E+00
      0.00000000000000E+00   0.00000000000000E+00   0.00000000000000E+00   0.00000000000000E+00   0.00000000000000E+00
      3.05924448026964E-18   0.00000000000000E+00   0.00000000000000E+00   0.00000000000000E+00   0.00000000000000E+00
     -1.87769708965344E-18  -2.40819545776521E-34  -1.87769708965344E-18  -1.54655002786974E-17   7.02945540656014E-02
      7.02945538382435E-02   0.00000000000000E+00   0.00000000000000E+00   1.22584332720447E-09   1.87817901361821E-35
      1.22584332720447E-09   5.90128646541537E-18
      9.02491858508910E-02
      0.00000000000000E+00   2.31445699963669E-10   0.00000000000000E+00   0.00000000000000E+00  -1.24779074394902E-09
      2.15914231216542E-34  -1.24779074394902E-09   6.50054519132030E-18   0.00000000000000E+00   0.00000000000000E+00
      0.00000000000000E+00   0.00000000000000E+00   0.00000000000000E+00   0.00000000000000E+00   0.00000000000000E+00
      2.97785071464243E-18   0.00000000000000E+00   0.00000000000000E+00   0.00000000000000E+00   0.00000000000000E+00
     -9.17205893455825E-19  -2.29416747790577E-34  -9.17205893455825E-19  -1.54671185983693E-17   7.76142998317663E-02
      7.76142996004864E-02   0.00000000000000E+00   0.00000000000000E+00   1.24779074486622E-09   1.35025165740356E-35
      1.24779074486622E-09   5.98872269240660E-18
      9.94981669352699E-02
      0.00000000000000E+00   2.35806599315336E-10   0.00000000000000E+00   0.00000000000000E+00  -1.27201269323651E-09
      2.24206267293875E-34  -1.27201269323651E-09   6.49573846653383E-18   0.00000000000000E+00   0.00000000000000E+00
      0.00000000000000E+00   0.00000000000000E+00   0.00000000000000E+00   0.00000000000000E+00   0.00000000000000E+00
      2.88944344967801E-18   0.00000000000000E+00   0.00000000000000E+00   0.00000000000000E+00   0.00000000000000E+00
      1.41046430801378E-18  -2.34655225250824E-34   1.41046430801378E-18  -1.54690155180349E-17   8.55684235643321E-02
      8.55684233287276E-02   0.00000000000000E+00   0.00000000000000E+00   1.27201269182605E-09   1.04489579569492E-35
      1.27201269182605E-09   6.08383360182313E-18
      1.09498166935270E-01
      0.00000000000000E+00   2.40571048750228E-10   0.00000000000000E+00   0.00000000000000E+00  -1.29849723815008E-09
      2.25671383199347E-34  -1.29849723815008E-09   6.49054231986889E-18   0.00000000000000E+00   0.00000000000000E+00
      0.00000000000000E+00   0.00000000000000E+00   0.00000000000000E+00   0.00000000000000E+00   0.00000000000000E+00
      2.79390027033758E-18   0.00000000000000E+00   0.00000000000000E+00   0.00000000000000E+00   0.00000000000000E+00
      8.01158588011802E-19  -2.32315174317949E-34   8.01158588011801E-19  -1.54712150676388E-17   9.41684235643321E-02
      9.41684233240018E-02   0.00000000000000E+00   0.00000000000000E+00   1.29849723734892E-09   6.64379111860221E-36
      1.29849723734892E-09   6.18677247743237E-18
      1.19498166935270E-01
      0.00000000000000E+00   2.45379782117456E-10   0.00000000000000E+00   0.00000000000000E+00  -1.32525489350805E-09
      2.03752738138826E-34  -1.32525489350805E-09   6.48534699215909E-18   0.00000000000000E+00   0.00000000000000E+00
      0.00000000000000E+00   0.00000000000000E+00   0.00000000000000E+00   0.00000000000000E+00   0.00000000000000E+00
      2.69839692272749E-18   0.00000000000000E+00   0.00000000000000E+00   0.00000000000000E+00   0.00000000000000E+00
      4.34712332500048E-19  -2.10047174795123E-34   4.34712332500048E-19  -1.54735557210658E-17   1.02768423564332E-01
      1.02768423319235E-01   0.00000000000000E+00   0.00000000000000E+00   1.32525489307334E-09   6.29443665629676E-36
      1.32525489307334E-09   6.28981180617912E-18
      1.29498166935270E-01
      0.00000000000000E+00   2.50242874646233E-10   0.00000000000000E+00   0.00000000000000E+00  -1.35234227366642E-09
      2.31928029542528E-34  -1.35234227366642E-09   6.48015238926161E-18   0.00000000000000E+00   0.00000000000000E+00
      0.00000000000000E+00   0.00000000000000E+00   0.00000000000000E+00   0.00000000000000E+00   0.00000000000000E+00
      2.60292924374668E-18   0.00000000000000E+00   0.00000000000000E+00   0.00000000000000E+00   0.00000000000000E+00
     -2.75335236042153E-20  -2.36407825133789E-34  -2.75335236042156E-20  -1.54760251873301E-17   1.11368423564332E-01
      1.11368423314422E-01   0.00000000000000E+00   0.00000000000000E+00   1.35234227369396E-09   4.47979559126117E-36
      1.35234227369396E-09   6.39294355432178E-18
      1.39498166935270E-01
      0.00000000000000E+00   2.55170982172201E-10   0.00000000000000E+00   0.00000000000000E+00  -1.37981763732532E-09
      2.38275964975164E-34  -1.37981763732532E-09   6.47495842860980E-18   0.00000000000000E+00   0.00000000000000E+00
      0.00000000000000E+00   0.00000000000000E+00   0.00000000000000E+00   0.00000000000000E+00   0.00000000000000E+00
      2.50749359758045E-18   0.00000000000000E+00   0.00000000000000E+00   0.00000000000000E+00   0.00000000000000E+00
      1.08703814106065E-18  -2.41751828091361E-34   1.08703814106065E-18  -1.54786124261501E-17   1.19968423564332E-01
      1.19968423309548E-01   0.00000000000000E+00   0.00000000000000E+00   1.37981763623828E-09   3.47586311619629E-36
      1.37981763623828E-09   6.49616039995982E-18
      1.49498166935270E-01
      0.00000000000000E+00   2.60170532442371E-10   0.00000000000000E+00   0.00000000000000E+00  -1.40771575708782E-09
      2.09173036300105E-34  -1.40771575708782E-09   6.46976503957290E-18   0.00000000000000E+00   0.00000000000000E+00
      0.00000000000000E+00   0.00000000000000E+00   0.00000000000000E+00   0.00000000000000E+00   0.00000000000000E+00
      2.41208683854424E-18   0.00000000000000E+00   0.00000000000000E+00   0.00000000000000E+00   0.00000000000000E+00
     -1.18716588195507E-18  -2.11578684413912E-34  -1.18716588195507E-18  -1.54813075441720E-17   1.28568423564332E-01
      1.28568423304600E-01   0.00000000000000E+00   0.00000000000000E+00   1.40771575827499E-09   2.40564811380663E-36
      1.40771575827499E-09   6.59945566605488E-18
      1.59498166935270E-01
      0.00000000000000E+00   2.65244535102627E-10   0.00000000000000E+00   0.00000000000000E+00  -1.43605288731112E-09
      2.22993142075437E-34  -1.43605288731112E-09   6.46457216031836E-18   0.00000000000000E+00   0.00000000000000E+00
      0.00000000000000E+00   0.00000000000000E+00   0.00000000000000E+00   0.00000000000000E+00   0.00000000000000E+00
      2.31670623750993E-18   0.00000000000000E+00   0.00000000000000E+00   0.00000000000000E+00   0.00000000000000E+00
      2.23957846213837E-19  -2.24599119949706E-34   2.23957846213837E-19  -1.54841016505348E-17   1.37168423564332E-01
      1.37168423299574E-01   0.00000000000000E+00   0.00000000000000E+00   1.43605288708716E-09   1.60597787426981E-36
      1.43605288708716E-09   6.70282325270642E-18
      1.69498166935270E-01
      0.00000000000000E+00   2.70394114443322E-10   0.00000000000000E+00   0.00000000000000E+00  -1.46483519494935E-09
      2.01710232162669E-34  -1.46483519494935E-09   6.45937973516515E-18   0.00000000000000E+00   0.00000000000000E+00
      0.00000000000000E+00   0.00000000000000E+00   0.00000000000000E+00   0.00000000000000E+00   0.00000000000000E+00
      2.22134939224493E-18   0.00000000000000E+00   0.00000000000000E+00   0.00000000000000E+00   0.00000000000000E+00
     -7.50467859245494E-19  -2.03068670831372E-34  -7.50467859245494E-19  -1.54869867037015E-17   1.45768423564332E-01
      1.45768423294469E-01   0.00000000000000E+00   0.00000000000000E+00   1.46483519569981E-09   1.35843866870254E-36
      1.46483519569981E-09   6.80625757629152E-18
      1.79498166935270E-01
      0.00000000000000E+00   2.75619443538709E-10   0.00000000000000E+00   0.00000000000000E+00  -1.49406406541963E-09
      2.05235287632494E-34  -1.49406406541963E-09   6.45418771348380E-18   0.00000000000000E+00   0.00000000000000E+00
      0.00000000000000E+00   0.00000000000000E+00   0.00000000000000E+00   0.00000000000000E+00   0.00000000000000E+00
      2.12601415870609E-18   0.00000000000000E+00   0.00000000000000E+00   0.00000000000000E+00   0.00000000000000E+00
     -5.48678321926560E-19  -2.06278848777217E-34  -5.48678321926560E-19  -1.54899553884636E-17   1.54368423564332E-01
      1.54368423289288E-01   0.00000000000000E+00   0.00000000000000E+00   1.49406406596831E-09   1.04356114472231E-36
      1.49406406596831E-09   6.90975351627369E-18
      1.89498166935270E-01
      0.00000000000000E+00   2.80920481774029E-10   0.00000000000000E+00   0.00000000000000E+00  -1.52373990898174E-09