DF-ISE text

Info {
  version   = 1.0
  type      = xyplot
  datasets  = [
    "time"
    "source OuterVoltage" "source InnerVoltage" "source QuasiFermiPotential" "source DisplacementCurrent" "source eCurrent"
    "source hCurrent" "source TotalCurrent" "source Charge" "gate OuterVoltage" "gate InnerVoltage"
    "gate QuasiFermiPotential" "gate DisplacementCurrent" "gate eCurrent" "gate hCurrent" "gate TotalCurrent"
    "gate Charge" "substrate OuterVoltage" "substrate InnerVoltage" "substrate QuasiFermiPotential" "substrate DisplacementCurrent"
    "substrate eCurrent" "substrate hCurrent" "substrate TotalCurrent" "substrate Charge" "drain OuterVoltage"
    "drain InnerVoltage" "drain QuasiFermiPotential" "drain DisplacementCurrent" "drain eCurrent" "drain hCurrent"
    "drain TotalCurrent" "drain Charge" ]
  functions = [
    Time
    OuterVoltage InnerVoltage QuasiFermiPotential DisplacementCurrent eCurrent
    hCurrent TotalCurrent Charge OuterVoltage InnerVoltage
    QuasiFermiPotential DisplacementCurrent eCurrent hCurrent TotalCurrent
    Charge OuterVoltage InnerVoltage QuasiFermiPotential DisplacementCurrent
    eCurrent hCurrent TotalCurrent Charge OuterVoltage
    InnerVoltage QuasiFermiPotential DisplacementCurrent eCurrent hCurrent
    TotalCurrent Charge ]
}

Data {
      0.00000000000000E+00
      0.00000000000000E+00   0.00000000000000E+00   0.00000000000000E+00   0.00000000000000E+00   3.78070923126040E-21
      6.04564021757864E-34   3.78070923126100E-21   7.09727968084869E-18   0.00000000000000E+00   0.00000000000000E+00
      0.00000000000000E+00   0.00000000000000E+00   0.00000000000000E+00   0.00000000000000E+00   0.00000000000000E+00
      4.19403824976040E-18   0.00000000000000E+00   0.00000000000000E+00   0.00000000000000E+00   0.00000000000000E+00
     -4.17367840264861E-21  -9.03962837541918E-34  -4.17367840264951E-21  -1.65789465628163E-17   0.00000000000000E+00
      0.00000000000000E+00   0.00000000000000E+00   0.00000000000000E+00   3.92969171388315E-22   2.99398815784053E-34
      3.92969171388614E-22   5.28762863220719E-18
      0.00000000000000E+00
      0.00000000000000E+00   1.84612537100556E-18   0.00000000000000E+00   0.00000000000000E+00  -4.89813721883257E-19
      6.22496817405893E-34  -4.89813721883256E-19   7.09272433179749E-18   0.00000000000000E+00   0.00000000000000E+00
      0.00000000000000E+00   0.00000000000000E+00   0.00000000000000E+00   0.00000000000000E+00   0.00000000000000E+00
      4.18535729054573E-18   0.00000000000000E+00   0.00000000000000E+00   0.00000000000000E+00   0.00000000000000E+00
      7.27631525406412E-19  -9.58186446733613E-34   7.27631525406411E-19  -1.65620940871551E-17   0.00000000000000E+00
      4.61531342751391E-19   0.00000000000000E+00   0.00000000000000E+00  -2.37817803523153E-19   3.35689629327719E-34
     -2.37817803523153E-19   5.28401246481187E-18
      1.00000000000000E-03
      0.00000000000000E+00   7.66769711593450E-13   0.00000000000000E+00   0.00000000000000E+00  -4.19944011416083E-12
      5.86563413961275E-34  -4.19944011416083E-12   7.09269263146789E-18   0.00000000000000E+00   0.00000000000000E+00
      0.00000000000000E+00   0.00000000000000E+00   0.00000000000000E+00   0.00000000000000E+00   0.00000000000000E+00
      4.18478126378153E-18   0.00000000000000E+00   0.00000000000000E+00   0.00000000000000E+00   0.00000000000000E+00
      1.63420958305021E-18  -9.19215857132876E-34   1.63420958305021E-18  -1.65620934129781E-17   5.00000000000000E-05
      4.99999992345184E-05   0.00000000000000E+00   0.00000000000000E+00   4.19943847995125E-12   3.32652443171602E-34
      4.19943847995125E-12   5.28461951772870E-18
      2.09333333333333E-03
      0.00000000000000E+00   1.60260620403562E-12   0.00000000000000E+00   0.00000000000000E+00  -8.77717807486306E-12
      5.31610867278422E-34  -8.77717807486306E-12   7.09265797258608E-18   0.00000000000000E+00   0.00000000000000E+00
      0.00000000000000E+00   0.00000000000000E+00   0.00000000000000E+00   0.00000000000000E+00   0.00000000000000E+00
      4.18415148098120E-18   0.00000000000000E+00   0.00000000000000E+00   0.00000000000000E+00   0.00000000000000E+00
      3.55723928532568E-19  -8.59011795789563E-34   3.55723928532567E-19  -1.65620926917685E-17   1.04666666666667E-04
      1.04666665066743E-04   0.00000000000000E+00   0.00000000000000E+00   8.77717771913913E-12   3.27400928511141E-34
      8.77717771913913E-12   5.28528323820130E-18
      3.29600000000000E-03
      0.00000000000000E+00   2.51892683968349E-12   0.00000000000000E+00   0.00000000000000E+00  -1.37956440239153E-11
      5.87068413791706E-34  -1.37956440239153E-11   7.09261984799143E-18   0.00000000000000E+00   0.00000000000000E+00
      0.00000000000000E+00   0.00000000000000E+00   0.00000000000000E+00   0.00000000000000E+00   0.00000000000000E+00
      4.18345872768946E-18   0.00000000000000E+00   0.00000000000000E+00   0.00000000000000E+00   0.00000000000000E+00
      1.09628306894566E-18  -9.41796242066004E-34   1.09628306894566E-18  -1.65620919175942E-17   1.64800000000000E-04
      1.64799997485303E-04   0.00000000000000E+00   0.00000000000000E+00   1.37956429276323E-11   3.54727828274299E-34
      1.37956429276323E-11   5.28601334191330E-18
      4.61893333333333E-03
      0.00000000000000E+00   3.52302981365999E-12   0.00000000000000E+00   0.00000000000000E+00  -1.92949281316680E-11
      5.77517096827197E-34  -1.92949281316680E-11   7.09257791114964E-18   0.00000000000000E+00   0.00000000000000E+00
      0.00000000000000E+00   0.00000000000000E+00   0.00000000000000E+00   0.00000000000000E+00   0.00000000000000E+00
      4.18269670848323E-18   0.00000000000000E+00   0.00000000000000E+00   0.00000000000000E+00   0.00000000000000E+00
     -1.06841749419438E-20  -8.74723996820364E-34  -1.06841749419447E-20  -1.65620910891615E-17   2.30946666666667E-04
      2.30946663149549E-04   0.00000000000000E+00   0.00000000000000E+00   1.92949281423522E-11   2.97206899993167E-34
      1.92949281423522E-11   5.28681646952865E-18
      6.07416000000000E-03
      0.00000000000000E+00   4.62284700362164E-12   0.00000000000000E+00   0.00000000000000E+00  -2.53183593959787E-11
      6.07055237204837E-34  -2.53183593959787E-11   7.09253178088073E-18   0.00000000000000E+00   0.00000000000000E+00
      0.00000000000000E+00   0.00000000000000E+00   0.00000000000000E+00   0.00000000000000E+00   0.00000000000000E+00
      4.18185849873526E-18   0.00000000000000E+00   0.00000000000000E+00   0.00000000000000E+00   0.00000000000000E+00
     -3.33955664096401E-18  -9.60104572309740E-34  -3.33955664096401E-18  -1.65620902058821E-17   3.03708000000000E-04
      3.03707995384911E-04   0.00000000000000E+00   0.00000000000000E+00   2.53183627355354E-11   3.53049335104903E-34
      2.53183627355354E-11   5.28769992626611E-18
      7.67490933333333E-03
      0.00000000000000E+00   5.82689689356161E-12   0.00000000000000E+00   0.00000000000000E+00  -3.19126410642393E-11
      5.84057176910277E-34  -3.19126410642393E-11   7.09248103789590E-18   0.00000000000000E+00   0.00000000000000E+00
      0.00000000000000E+00   0.00000000000000E+00   0.00000000000000E+00   0.00000000000000E+00   0.00000000000000E+00
      4.18093648176383E-18   0.00000000000000E+00   0.00000000000000E+00   0.00000000000000E+00   0.00000000000000E+00
     -2.70281835907359E-18  -9.06716191219261E-34  -2.70281835907359E-18  -1.65620892681157E-17   3.83745466666667E-04
      3.83745460849555E-04   0.00000000000000E+00   0.00000000000000E+00   3.19126437670576E-11   3.22659014308984E-34
      3.19126437670576E-11   5.28867174845603E-18
      9.43573360000000E-03
      0.00000000000000E+00   7.14433995757082E-12   0.00000000000000E+00   0.00000000000000E+00  -3.91279576510724E-11
      5.97545593054170E-34  -3.91279576510724E-11   7.09242522098873E-18   0.00000000000000E+00   0.00000000000000E+00
      0.00000000000000E+00   0.00000000000000E+00   0.00000000000000E+00   0.00000000000000E+00   0.00000000000000E+00
      4.17992227971162E-18   0.00000000000000E+00   0.00000000000000E+00   0.00000000000000E+00   0.00000000000000E+00
     -3.36866133461305E-18  -9.33314934866726E-34  -3.36866133461305E-18  -1.65620882774745E-17   4.71786680000000E-04
      4.71786672867659E-04   0.00000000000000E+00   0.00000000000000E+00   3.91279610197338E-11   3.35769341812557E-34
      3.91279610197338E-11   5.28974077677412E-18
      1.13726402933333E-02
      0.00000000000000E+00   8.58501142856332E-12   0.00000000000000E+00   0.00000000000000E+00  -4.70180975464875E-11
      6.30093011884680E-34  -4.70180975464875E-11   7.09236382284573E-18   0.00000000000000E+00   0.00000000000000E+00
      0.00000000000000E+00   0.00000000000000E+00   0.00000000000000E+00   0.00000000000000E+00   0.00000000000000E+00
      4.17880667752971E-18   0.00000000000000E+00   0.00000000000000E+00   0.00000000000000E+00   0.00000000000000E+00
     -2.25922384738985E-18  -9.67685496433571E-34  -2.25922384738985E-18  -1.65620872371992E-17   5.68632014666667E-04
      5.68632006096074E-04   0.00000000000000E+00   0.00000000000000E+00   4.70180998057113E-11   3.37592484548891E-34
      4.70180998057113E-11   5.29091673682371E-18
      1.35032376560000E-02
      0.00000000000000E+00   1.01594056062106E-11   0.00000000000000E+00   0.00000000000000E+00  -5.56405053400410E-11
      5.74558830197016E-34  -5.56405053400410E-11   7.09229628543837E-18   0.00000000000000E+00   0.00000000000000E+00
      0.00000000000000E+00   0.00000000000000E+00   0.00000000000000E+00   0.00000000000000E+00   0.00000000000000E+00
      4.17757953938076E-18   0.00000000000000E+00   0.00000000000000E+00   0.00000000000000E+00   0.00000000000000E+00
     -4.20068185912478E-18  -9.05180486115234E-34  -4.20068185912478E-18  -1.65620861526257E-17   6.75161882800000E-04
      6.75161872657679E-04   0.00000000000000E+00   0.00000000000000E+00   5.56405095407228E-11   3.30621655918219E-34
      5.56405095407228E-11   5.29221032780658E-18
      1.58468947549333E-02
      0.00000000000000E+00   1.18786717031594E-11   0.00000000000000E+00   0.00000000000000E+00  -6.50563231475569E-11
      5.73069318482567E-34  -6.50563231475569E-11   7.09222199495495E-18   0.00000000000000E+00   0.00000000000000E+00
      0.00000000000000E+00   0.00000000000000E+00   0.00000000000000E+00   0.00000000000000E+00   0.00000000000000E+00
      4.17622971670738E-18   0.00000000000000E+00   0.00000000000000E+00   0.00000000000000E+00   0.00000000000000E+00
      2.81992779829511E-18  -8.88222084868664E-34   2.81992779829511E-18  -1.65620850317599E-17   7.92344737746667E-04
      7.92344725887980E-04   0.00000000000000E+00   0.00000000000000E+00   6.50563203276291E-11   3.15152766386097E-34
      6.50563203276291E-11   5.29363332009761E-18
      1.84249175637600E-02
      0.00000000000000E+00   1.37546475368201E-11   0.00000000000000E+00   0.00000000000000E+00  -7.53303108160542E-11
      5.27602304414662E-34  -7.53303108160542E-11   7.09214027622643E-18   0.00000000000000E+00   0.00000000000000E+00
      0.00000000000000E+00   0.00000000000000E+00   0.00000000000000E+00   0.00000000000000E+00   0.00000000000000E+00
      4.17474494713736E-18   0.00000000000000E+00   0.00000000000000E+00   0.00000000000000E+00   0.00000000000000E+00
      1.81432201192660E-18  -8.05627533929089E-34   1.81432201192660E-18  -1.65620838859849E-17   9.21245878188001E-04
      9.21245864456507E-04   0.00000000000000E+00   0.00000000000000E+00   7.53303090017322E-11   2.78025229514429E-34
      7.53303090017322E-11   5.29519866262115E-18
      2.12607426534693E-02
      0.00000000000000E+00   1.57998087609186E-11   0.00000000000000E+00   0.00000000000000E+00  -8.65307675288768E-11
      5.99178396058097E-34  -8.65307675288768E-11   7.09205038659536E-18   0.00000000000000E+00   0.00000000000000E+00
      0.00000000000000E+00   0.00000000000000E+00   0.00000000000000E+00   0.00000000000000E+00   0.00000000000000E+00
      4.17311174331451E-18   0.00000000000000E+00   0.00000000000000E+00   0.00000000000000E+00   0.00000000000000E+00
     -3.08753758545758E-18  -9.03409170592246E-34  -3.08753758545758E-18  -1.65620827309273E-17   1.06303713267347E-03
      1.06303711690027E-03   0.00000000000000E+00   0.00000000000000E+00   8.65307706164143E-11   3.04230774534149E-34
      8.65307706164143E-11   5.29692060101740E-18
      2.43801502521496E-02
      0.00000000000000E+00   1.80272448658665E-11   0.00000000000000E+00   0.00000000000000E+00  -9.87292924012992E-11
      5.75507125108209E-34  -9.87292924012992E-11   7.09195150917302E-18   0.00000000000000E+00   0.00000000000000E+00
      0.00000000000000E+00   0.00000000000000E+00   0.00000000000000E+00   0.00000000000000E+00   0.00000000000000E+00
      4.17131527065644E-18   0.00000000000000E+00   0.00000000000000E+00   0.00000000000000E+00   0.00000000000000E+00
     -8.87626329818189E-18  -8.78244546561935E-34  -8.87626329818189E-18  -1.65620815875193E-17   1.21900751260748E-03
      1.21900749461062E-03   0.00000000000000E+00   0.00000000000000E+00   9.87293012775625E-11   3.02737421453726E-34
      9.87293012775625E-11   5.29881480768977E-18
      2.78114986106979E-02
      0.00000000000000E+00   2.04505617956483E-11   0.00000000000000E+00   0.00000000000000E+00  -1.12000457555448E-10
      6.15103764973912E-34  -1.12000457555448E-10   7.09184274542331E-18   0.00000000000000E+00   0.00000000000000E+00
      0.00000000000000E+00   0.00000000000000E+00   0.00000000000000E+00   0.00000000000000E+00   0.00000000000000E+00
      4.16933921293880E-18   0.00000000000000E+00   0.00000000000000E+00   0.00000000000000E+00   0.00000000000000E+00
      3.55824934993655E-18  -9.31573525304051E-34   3.55824934993655E-18  -1.65620804832949E-17   1.39057493053490E-03
      1.39057491011885E-03   0.00000000000000E+00   0.00000000000000E+00   1.12000453997199E-10   3.16469760330139E-34
      1.12000453997199E-10   5.30089852493283E-18
      3.15859818051010E-02
      0.00000000000000E+00   2.30838367177492E-11   0.00000000000000E+00   0.00000000000000E+00  -1.26421242063113E-10
      5.30656555286300E-34  -1.26421242063113E-10   7.09172310700642E-18   0.00000000000000E+00   0.00000000000000E+00
      0.00000000000000E+00   0.00000000000000E+00   0.00000000000000E+00   0.00000000000000E+00   0.00000000000000E+00
      4.16716562449914E-18   0.00000000000000E+00   0.00000000000000E+00   0.00000000000000E+00   0.00000000000000E+00
     -1.03737601613727E-17  -8.39454229886059E-34  -1.03737601613727E-17  -1.65620794539706E-17   1.57929909025505E-03
      1.57929906721020E-03   0.00000000000000E+00   0.00000000000000E+00   1.26421252436873E-10   3.08797674599759E-34
      1.26421252436873E-10   5.30319072246506E-18
      3.57379133189445E-02
      0.00000000000000E+00   2.59414680254690E-11   0.00000000000000E+00   0.00000000000000E+00  -1.42070480464329E-10
      5.68523404960500E-34  -1.42070480464329E-10   7.09159150680829E-18   0.00000000000000E+00   0.00000000000000E+00
      0.00000000000000E+00   0.00000000000000E+00   0.00000000000000E+00   0.00000000000000E+00   0.00000000000000E+00
      4.16477476773445E-18   0.00000000000000E+00   0.00000000000000E+00   0.00000000000000E+00   0.00000000000000E+00
      1.94914420723165E-18  -8.80171062765120E-34   1.94914420723165E-18  -1.65620785453672E-17   1.78689566594722E-03
      1.78689564004961E-03   0.00000000000000E+00   0.00000000000000E+00   1.42070478515185E-10   3.11647657804620E-34
      1.42070478515185E-10   5.30571227082454E-18
      4.03050379841723E-02
      0.00000000000000E+00   2.90380161096088E-11   0.00000000000000E+00   0.00000000000000E+00  -1.59027869445771E-10
      5.86482991367835E-34  -1.59027869445771E-10   7.09144674907558E-18   0.00000000000000E+00   0.00000000000000E+00
      0.00000000000000E+00   0.00000000000000E+00   0.00000000000000E+00   0.00000000000000E+00   0.00000000000000E+00
      4.16214493443441E-18   0.00000000000000E+00   0.00000000000000E+00   0.00000000000000E+00   0.00000000000000E+00
      5.10061674105168E-18  -9.16726119367255E-34   5.10061674105168E-18  -1.65620778157458E-17   2.01525189920861E-03
      2.01525187021974E-03   0.00000000000000E+00   0.00000000000000E+00   1.59027864345154E-10   3.30243127999419E-34
      1.59027864345154E-10   5.30848613223584E-18
      4.53288751159228E-02
      0.00000000000000E+00   3.23880048999937E-11   0.00000000000000E+00   0.00000000000000E+00  -1.77372838957612E-10
      5.65274659864601E-34  -1.77372838957612E-10   7.09128751856576E-18   0.00000000000000E+00   0.00000000000000E+00
      0.00000000000000E+00   0.00000000000000E+00   0.00000000000000E+00   0.00000000000000E+00   0.00000000000000E+00
      4.15925224935583E-18   0.00000000000000E+00   0.00000000000000E+00   0.00000000000000E+00   0.00000000000000E+00
     -2.64617612215511E-17  -8.80313827256705E-34  -2.64617612215511E-17  -1.65620773386430E-17   2.26644375579614E-03
      2.26644372346298E-03   0.00000000000000E+00   0.00000000000000E+00   1.77372865419374E-10   3.15039167392104E-34
      1.77372865419374E-10   5.31153757072140E-18
      5.08550959608485E-02
      0.00000000000000E+00   3.60056735616102E-11   0.00000000000000E+00   0.00000000000000E+00  -1.97183228858617E-10
      6.30337922740086E-34  -1.97183228858617E-10   7.09111236861574E-18   0.00000000000000E+00   0.00000000000000E+00
      0.00000000000000E+00   0.00000000000000E+00   0.00000000000000E+00   0.00000000000000E+00   0.00000000000000E+00
      4.15607045427250E-18   0.00000000000000E+00   0.00000000000000E+00   0.00000000000000E+00   0.00000000000000E+00
     -3.24160518159241E-17  -9.38900156937007E-34  -3.24160518159241E-17  -1.65620772062984E-17   2.54275479804242E-03
      2.54275476209780E-03   0.00000000000000E+00   0.00000000000000E+00   1.97183261274669E-10   3.08562234196922E-34
      1.97183261274669E-10   5.31489438341017E-18
      5.69339388902666E-02
      0.00000000000000E+00   3.99046072695323E-11   0.00000000000000E+00   0.00000000000000E+00  -2.18533370302881E-10
      6.33594563197546E-34  -2.18533370302881E-10   7.09091970801972E-18   0.00000000000000E+00   0.00000000000000E+00
      0.00000000000000E+00   0.00000000000000E+00   0.00000000000000E+00   0.00000000000000E+00   0.00000000000000E+00
      4.15257067057030E-18   0.00000000000000E+00   0.00000000000000E+00   0.00000000000000E+00   0.00000000000000E+00
     -3.88354518421500E-17  -9.53033842283959E-34  -3.88354518421500E-17  -1.65620775337923E-17   2.84669694451333E-03
      2.84669690467647E-03   0.00000000000000E+00   0.00000000000000E+00   2.18533409138333E-10   3.19439279086414E-34
      2.18533409138333E-10   5.31858715520228E-18
      6.36206661126266E-02
      0.00000000000000E+00   4.40973993679782E-11   0.00000000000000E+00   0.00000000000000E+00  -2.41492058108165E-10
      5.87777247054194E-34  -2.41492058108165E-10   7.09070778659950E-18   0.00000000000000E+00   0.00000000000000E+00
      0.00000000000000E+00   0.00000000000000E+00   0.00000000000000E+00   0.00000000000000E+00   0.00000000000000E+00
      4.14872113828486E-18   0.00000000000000E+00   0.00000000000000E+00   0.00000000000000E+00   0.00000000000000E+00
     -4.94206912108788E-17  -8.84097273696386E-34  -4.94206912108788E-17  -1.65620784640539E-17   3.18103330563133E-03
      3.18103326160891E-03   0.00000000000000E+00   0.00000000000000E+00   2.41492107528856E-10   2.96320026642192E-34
      2.41492107528856E-10   5.32264953916959E-18
      7.09760660572226E-02
      0.00000000000000E+00   4.85951423012396E-11   0.00000000000000E+00   0.00000000000000E+00  -2.66119958471510E-10
      6.10896137351868E-34  -2.66119958471510E-10   7.09047467933581E-18   0.00000000000000E+00   0.00000000000000E+00
      0.00000000000000E+00   0.00000000000000E+00   0.00000000000000E+00   0.00000000000000E+00   0.00000000000000E+00
      4.14448692924316E-18   0.00000000000000E+00   0.00000000000000E+00   0.00000000000000E+00   0.00000000000000E+00
     -6.06389613703809E-17  -9.04308203314435E-34  -6.06389613703809E-17  -1.65620801738902E-17   3.54880330286113E-03
      3.54880325434874E-03   0.00000000000000E+00   0.00000000000000E+00   2.66120019110471E-10   2.93412065962567E-34
      2.66120019110471E-10   5.32711856531121E-18
      7.90670059962782E-02
      0.00000000000000E+00   5.34069176215479E-11   0.00000000000000E+00   0.00000000000000E+00  -2.92466553512139E-10
      5.94483557063401E-34  -2.92466553512139E-10   7.09021826891857E-18   0.00000000000000E+00   0.00000000000000E+00
      0.00000000000000E+00   0.00000000000000E+00   0.00000000000000E+00   0.00000000000000E+00   0.00000000000000E+00
      4.13982963176560E-18   0.00000000000000E+00   0.00000000000000E+00   0.00000000000000E+00   0.00000000000000E+00
     -6.31373523334159E-17  -9.17220308965511E-34  -6.31373523334159E-17  -1.65620828812441E-17   3.95335029981391E-03
      3.95335024649810E-03   0.00000000000000E+00   0.00000000000000E+00   2.92466616649492E-10   3.22736751902111E-34
      2.92466616649492E-10   5.33203498055984E-18
      8.79670399292394E-02
      0.00000000000000E+00   5.85391415376299E-11   0.00000000000000E+00   0.00000000000000E+00  -3.20566850460326E-10
      6.26187072361879E-34  -3.20566850460326E-10   7.08993622655728E-18   0.00000000000000E+00   0.00000000000000E+00
      0.00000000000000E+00   0.00000000000000E+00   0.00000000000000E+00   0.00000000000000E+00   0.00000000000000E+00
      4.13470700407306E-18   0.00000000000000E+00   0.00000000000000E+00   0.00000000000000E+00   0.00000000000000E+00
     -7.89687088264432E-17  -9.08544804712553E-34  -7.89687088264432E-17  -1.65620868538695E-17   4.39835199646197E-03
      4.39835193802288E-03   0.00000000000000E+00   0.00000000000000E+00   3.20566929429035E-10   2.82357732350674E-34
      3.20566929429035E-10   5.33744362323913E-18
      9.77570772554967E-02
      0.00000000000000E+00   6.39948523103151E-11   0.00000000000000E+00   0.00000000000000E+00  -3.50437295400675E-10
      5.49248637794517E-34  -3.50437295400675E-10   7.08962599088083E-18   0.00000000000000E+00   0.00000000000000E+00
      0.00000000000000E+00   0.00000000000000E+00   0.00000000000000E+00   0.00000000000000E+00   0.00000000000000E+00
      4.12907259342352E-18   0.00000000000000E+00   0.00000000000000E+00   0.00000000000000E+00   0.00000000000000E+00
     -8.75107234222636E-17  -8.32272231723560E-34  -8.75107234222636E-17  -1.65620924197959E-17   4.88785386277484E-03
      4.88785379888956E-03   0.00000000000000E+00   0.00000000000000E+00   3.50437382911399E-10   2.83023593929042E-34
      3.50437382911399E-10   5.34339383549149E-18
      1.07757077255497E-01
      0.00000000000000E+00   6.93679342036447E-11   0.00000000000000E+00   0.00000000000000E+00  -3.79854168628938E-10
      6.20265061516881E-34  -3.79854168628938E-10   7.08930911342454E-18   0.00000000000000E+00   0.00000000000000E+00
      0.00000000000000E+00   0.00000000000000E+00   0.00000000000000E+00   0.00000000000000E+00   0.00000000000000E+00
      4.12331785877198E-18   0.00000000000000E+00   0.00000000000000E+00   0.00000000000000E+00   0.00000000000000E+00
     -9.13926740548400E-17  -9.05851541099311E-34  -9.13926740548400E-17  -1.65620993901858E-17   5.38785386277483E-03
      5.38785379352594E-03   0.00000000000000E+00   0.00000000000000E+00   3.79854260021612E-10   2.85586479582430E-34
      3.79854260021612E-10   5.34947241798930E-18
      1.17757077255497E-01
      0.00000000000000E+00   7.45450605040631E-11   0.00000000000000E+00   0.00000000000000E+00  -4.08197152690794E-10
      6.35068140655112E-34  -4.08197152690794E-10   7.08899224769535E-18   0.00000000000000E+00   0.00000000000000E+00
      0.00000000000000E+00   0.00000000000000E+00   0.00000000000000E+00   0.00000000000000E+00   0.00000000000000E+00
      4.11756363999858E-18   0.00000000000000E+00   0.00000000000000E+00   0.00000000000000E+00   0.00000000000000E+00
     -8.70591114821578E-17  -9.00925554293792E-34  -8.70591114821578E-17  -1.65621076504881E-17   5.88785386277483E-03
      5.88785378835796E-03   0.00000000000000E+00   0.00000000000000E+00   4.08197239749905E-10   2.65857413638681E-34
      4.08197239749905E-10   5.35555176279412E-18
      1.27757077255497E-01
      0.00000000000000E+00   7.95320520448648E-11   0.00000000000000E+00   0.00000000000000E+00  -4.35498224654645E-10
      5.46795925716651E-34  -4.35498224654645E-10   7.08867539358567E-18   0.00000000000000E+00   0.00000000000000E+00
      0.00000000000000E+00   0.00000000000000E+00   0.00000000000000E+00   0.00000000000000E+00   0.00000000000000E+00
      4.11180993277887E-18   0.00000000000000E+00   0.00000000000000E+00   0.00000000000000E+00   0.00000000000000E+00
     -9.83862620759973E-17  -8.18311127301469E-34  -9.83862620759973E-17  -1.65621171919002E-17   6.38785386277483E-03
      6.38785378337981E-03   0.00000000000000E+00   0.00000000000000E+00   4.35498323040907E-10   2.71515201584819E-34
      4.35498323040907E-10   5.36163186553560E-18
      1.37757077255497E-01
      0.00000000000000E+00   8.43346641218941E-11   0.00000000000000E+00   0.00000000000000E+00  -4.61789050588516E-10
      5.57618356680308E-34  -4.61789050588516E-10   7.08835855098746E-18   0.00000000000000E+00   0.00000000000000E+00
      0.00000000000000E+00   0.00000000000000E+00   0.00000000000000E+00   0.00000000000000E+00   0.00000000000000E+00
      4.10605673281391E-18   0.00000000000000E+00   0.00000000000000E+00   0.00000000000000E+00   0.00000000000000E+00
     -9.32165530607176E-17  -8.23662388855714E-34  -9.32165530607176E-17  -1.65621280056655E-17   6.88785386277483E-03
      6.88785377858574E-03   0.00000000000000E+00   0.00000000000000E+00   4.61789143805069E-10   2.66044032175407E-34
      4.61789143805069E-10   5.36771272186411E-18
      1.47757077255497E-01
      0.00000000000000E+00   8.89586081855174E-11   0.00000000000000E+00   0.00000000000000E+00  -4.87100895847575E-10
      5.89807167943111E-34  -4.87100895847575E-10   7.08804171979300E-18   0.00000000000000E+00   0.00000000000000E+00
      0.00000000000000E+00   0.00000000000000E+00   0.00000000000000E+00   0.00000000000000E+00   0.00000000000000E+00
      4.10030403584840E-18   0.00000000000000E+00   0.00000000000000E+00   0.00000000000000E+00   0.00000000000000E+00
     -8.91205153715578E-17  -8.31104984922961E-34  -8.91205153715578E-17  -1.65621400831040E-17   7.38785386277483E-03
      7.38785377397006E-03   0.00000000000000E+00   0.00000000000000E+00   4.87100984968091E-10   2.41297816979850E-34
      4.87100984968091E-10   5.37379432746253E-18
      1.57757077255497E-01
      0.00000000000000E+00   9.34094646112001E-11   0.00000000000000E+00   0.00000000000000E+00  -5.11464508609059E-10
      5.63507805005509E-34  -5.11464508609059E-10   7.08772489989467E-18   0.00000000000000E+00   0.00000000000000E+00
      0.00000000000000E+00   0.00000000000000E+00   0.00000000000000E+00   0.00000000000000E+00   0.00000000000000E+00
      4.09455183766214E-18   0.00000000000000E+00   0.00000000000000E+00   0.00000000000000E+00   0.00000000000000E+00
     -8.44343989238637E-17  -8.01333955668011E-34  -8.44343989238637E-17  -1.65621534155966E-17   7.88785386277484E-03
      7.88785376952718E-03   0.00000000000000E+00   0.00000000000000E+00   5.11464593043458E-10   2.37826150662504E-34
      5.11464593043458E-10   5.37987667803982E-18
      1.67757077255497E-01
      0.00000000000000E+00   9.76927482369566E-11   0.00000000000000E+00   0.00000000000000E+00  -5.34910096262464E-10
      5.46036017788753E-34  -5.34910096262464E-10   7.08740809118518E-18   0.00000000000000E+00   0.00000000000000E+00
      0.00000000000000E+00   0.00000000000000E+00   0.00000000000000E+00   0.00000000000000E+00   0.00000000000000E+00
      4.08880013407330E-18   0.00000000000000E+00   0.00000000000000E+00   0.00000000000000E+00   0.00000000000000E+00
     -7.90334790197312E-17  -8.11782241824042E-34  -7.90334790197312E-17  -1.65621679945925E-17   8.38785386277484E-03
      8.38785376525160E-03   0.00000000000000E+00   0.00000000000000E+00   5.34910175295942E-10   2.65746224035289E-34
      5.34910175295942E-10   5.38595976933408E-18
      1.77757077255497E-01
      0.00000000000000E+00   1.01813840979775E-10   0.00000000000000E+00   0.00000000000000E+00  -5.57467272121475E-10
      5.78557249690480E-34  -5.57467272121475E-10   7.08709129355734E-18   0.00000000000000E+00   0.00000000000000E+00
      0.00000000000000E+00   0.00000000000000E+00   0.00000000000000E+00   0.00000000000000E+00   0.00000000000000E+00
      4.08304892093105E-18   0.00000000000000E+00   0.00000000000000E+00   0.00000000000000E+00   0.00000000000000E+00
     -8.70936098863574E-17  -8.20696918371652E-34  -8.70936098863574E-17  -1.65621838115957E-17   8.88785386277484E-03
      8.88785376113793E-03   0.00000000000000E+00   0.00000000000000E+00   5.57467359215085E-10   2.42139668681172E-34
      5.57467359215085E-10   5.39204359710735E-18
      1.87757077255497E-01
      0.00000000000000E+00   1.05778025527404E-10   0.00000000000000E+00   0.00000000000000E+00  -5.79165054941404E-10
      6.20266392687348E-34  -5.79165054941404E-10   7.08677450690446E-18   0.00000000000000E+00   0.00000000000000E+00
      0.00000000000000E+00   0.00000000000000E+00   0.00000000000000E+00   0.00000000000000E+00   0.00000000000000E+00
      4.07729819412964E-18   0.00000000000000E+00   0.00000000000000E+00   0.00000000000000E+00   0.00000000000000E+00
     -7.23304987554757E-17  -8.68794230846834E-34  -7.23304987554757E-17  -1.65622008581909E-17   9.38785386277484E-03
      9.38785375718090E-03   0.00000000000000E+00   0.00000000000000E+00   5.79165127271903E-10   2.48527838159486E-34
      5.79165127271903E-10   5.39812815715686E-18
      1.97757077255497E-01
      0.00000000000000E+00   1.09590474261601E-10   0.00000000000000E+00   0.00000000000000E+00  -6.00031760705745E-10