DF-ISE text

Info {
  version   = 1.0
  type      = xyplot
  datasets  = [
    "time"
    "source OuterVoltage" "source InnerVoltage" "source QuasiFermiPotential" "source DisplacementCurrent" "source eCurrent"
    "source hCurrent" "source TotalCurrent" "source Charge" "gate OuterVoltage" "gate InnerVoltage"
    "gate QuasiFermiPotential" "gate DisplacementCurrent" "gate eCurrent" "gate hCurrent" "gate TotalCurrent"
    "gate Charge" "substrate OuterVoltage" "substrate InnerVoltage" "substrate QuasiFermiPotential" "substrate DisplacementCurrent"
    "substrate eCurrent" "substrate hCurrent" "substrate TotalCurrent" "substrate Charge" "drain OuterVoltage"
    "drain InnerVoltage" "drain QuasiFermiPotential" "drain DisplacementCurrent" "drain eCurrent" "drain hCurrent"
    "drain TotalCurrent" "drain Charge" ]
  functions = [
    Time
    OuterVoltage InnerVoltage QuasiFermiPotential DisplacementCurrent eCurrent
    hCurrent TotalCurrent Charge OuterVoltage InnerVoltage
    QuasiFermiPotential DisplacementCurrent eCurrent hCurrent TotalCurrent
    Charge OuterVoltage InnerVoltage QuasiFermiPotential DisplacementCurrent
    eCurrent hCurrent TotalCurrent Charge OuterVoltage
    InnerVoltage QuasiFermiPotential DisplacementCurrent eCurrent hCurrent
    TotalCurrent Charge ]
}

Data {
      0.00000000000000E+00
      0.00000000000000E+00   0.00000000000000E+00   0.00000000000000E+00   0.00000000000000E+00  -2.14772031922410E-19
      2.11938164118591E-33  -2.14772031922408E-19   6.87256054681005E-18   0.00000000000000E+00   0.00000000000000E+00
      0.00000000000000E+00   0.00000000000000E+00   0.00000000000000E+00   0.00000000000000E+00   0.00000000000000E+00
      4.02146179946036E-18   0.00000000000000E+00   0.00000000000000E+00   0.00000000000000E+00   0.00000000000000E+00
      2.14326311351278E-19  -3.17012192046048E-33   2.14326311351275E-19  -1.60043681194215E-17   0.00000000000000E+00
      0.00000000000000E+00   0.00000000000000E+00   0.00000000000000E+00   4.45720571132753E-22   1.05074027927458E-33
      4.45720571133803E-22   5.11034577315105E-18
      0.00000000000000E+00
      0.00000000000000E+00  -4.59223686037634E-19   0.00000000000000E+00   0.00000000000000E+00  -7.90787800767997E-18
      2.11642572145243E-33  -7.90787800767997E-18   6.86782798318328E-18   0.00000000000000E+00   0.00000000000000E+00
      0.00000000000000E+00   0.00000000000000E+00   0.00000000000000E+00   0.00000000000000E+00   0.00000000000000E+00
      4.01243881189249E-18   0.00000000000000E+00   0.00000000000000E+00   0.00000000000000E+00   0.00000000000000E+00
      8.07550667809090E-18  -3.18742373164864E-33   8.07550667809090E-18  -1.59868381435616E-17   0.00000000000000E+00
      0.00000000000000E+00   0.00000000000000E+00   0.00000000000000E+00  -1.67628670410926E-19   1.07099801019621E-33
     -1.67628670410925E-19   5.10657134848583E-18
      1.00000000000000E-03
      0.00000000000000E+00   7.62690637587139E-13   0.00000000000000E+00   0.00000000000000E+00  -4.09999295524465E-12
      2.09474607446269E-33  -4.09999295524465E-12   6.86779688387636E-18   0.00000000000000E+00   0.00000000000000E+00
      0.00000000000000E+00   0.00000000000000E+00   0.00000000000000E+00   0.00000000000000E+00   0.00000000000000E+00
      4.01188532384651E-18   0.00000000000000E+00   0.00000000000000E+00   0.00000000000000E+00   0.00000000000000E+00
      1.25929303716843E-17  -3.12517252104095E-33   1.25929303716843E-17  -1.59868380948495E-17   5.00000000000000E-05
      4.99999992384625E-05   0.00000000000000E+00   0.00000000000000E+00   4.09998036231428E-12   1.03042644657826E-33
      4.09998036231428E-12   5.10715588712653E-18
      2.09333333333333E-03
      0.00000000000000E+00   1.59407930171076E-12   0.00000000000000E+00   0.00000000000000E+00  -8.56924831427864E-12
      2.10719026712149E-33  -8.56924831427864E-12   6.86776288211191E-18   0.00000000000000E+00   0.00000000000000E+00
      0.00000000000000E+00   0.00000000000000E+00   0.00000000000000E+00   0.00000000000000E+00   0.00000000000000E+00
      4.01128018308269E-18   0.00000000000000E+00   0.00000000000000E+00   0.00000000000000E+00   0.00000000000000E+00
     -4.06104901549256E-18  -3.15221346341030E-33  -4.06104901549257E-18  -1.59868380569095E-17   1.04666666666667E-04
      1.04666665075008E-04   0.00000000000000E+00   0.00000000000000E+00   8.56925237532765E-12   1.04502319628881E-33
      8.56925237532765E-12   5.10779499171496E-18
      3.29600000000000E-03
      0.00000000000000E+00   2.50549595915280E-12   0.00000000000000E+00   0.00000000000000E+00  -1.34687381026462E-11
      2.09355527619792E-33  -1.34687381026462E-11   6.86772548034527E-18   0.00000000000000E+00   0.00000000000000E+00
      0.00000000000000E+00   0.00000000000000E+00   0.00000000000000E+00   0.00000000000000E+00   0.00000000000000E+00
      4.01061453567488E-18   0.00000000000000E+00   0.00000000000000E+00   0.00000000000000E+00   0.00000000000000E+00
      1.65637751514113E-19  -3.16856464668580E-33   1.65637751514110E-19  -1.59868380336422E-17   1.64800000000000E-04
      1.64799997498308E-04   0.00000000000000E+00   0.00000000000000E+00   1.34687379370084E-11   1.07500937048788E-33
      1.34687379370084E-11   5.10849801762197E-18
      4.61893333333333E-03
      0.00000000000000E+00   3.50422343835010E-12   0.00000000000000E+00   0.00000000000000E+00  -1.88375517759604E-11
      2.13153794872743E-33  -1.88375517759604E-11   6.86768433861313E-18   0.00000000000000E+00   0.00000000000000E+00
      0.00000000000000E+00   0.00000000000000E+00   0.00000000000000E+00   0.00000000000000E+00   0.00000000000000E+00
      4.00988233251047E-18   0.00000000000000E+00   0.00000000000000E+00   0.00000000000000E+00   0.00000000000000E+00
     -9.04958082930315E-19  -3.19547017189170E-33  -9.04958082930318E-19  -1.59868380303737E-17   2.30946666666667E-04
      2.30946663167768E-04   0.00000000000000E+00   0.00000000000000E+00   1.88375526809185E-11   1.06393222316427E-33
      1.88375526809185E-11   5.10927135925007E-18
      6.07416000000000E-03
      0.00000000000000E+00   4.59812502647871E-12   0.00000000000000E+00   0.00000000000000E+00  -2.47179667131632E-11
      2.14509552419850E-33  -2.47179667131632E-11   6.86763908296333E-18   0.00000000000000E+00   0.00000000000000E+00
      0.00000000000000E+00   0.00000000000000E+00   0.00000000000000E+00   0.00000000000000E+00   0.00000000000000E+00
      4.00907691988840E-18   0.00000000000000E+00   0.00000000000000E+00   0.00000000000000E+00   0.00000000000000E+00
      2.55878186616467E-18  -3.22709841929043E-33   2.55878186616467E-18  -1.59868380537676E-17   3.03708000000000E-04
      3.03707995408870E-04   0.00000000000000E+00   0.00000000000000E+00   2.47179641543813E-11   1.08200289509193E-33
      2.47179641543813E-11   5.11012205091585E-18
      7.67490933333333E-03
      0.00000000000000E+00   5.79566697141441E-12   0.00000000000000E+00   0.00000000000000E+00  -3.11555207481988E-11
      2.11204465819447E-33  -3.11555207481988E-11   6.86758930205776E-18   0.00000000000000E+00   0.00000000000000E+00
      0.00000000000000E+00   0.00000000000000E+00   0.00000000000000E+00   0.00000000000000E+00   0.00000000000000E+00
      4.00819097912715E-18   0.00000000000000E+00   0.00000000000000E+00   0.00000000000000E+00   0.00000000000000E+00
      1.43571048243821E-18  -3.18666482252401E-33   1.43571048243821E-18  -1.59868381121249E-17   3.83745466666667E-04
      3.83745460879814E-04   0.00000000000000E+00   0.00000000000000E+00   3.11555193124884E-11   1.07462016432954E-33
      3.11555193124884E-11   5.11105783093995E-18
      9.43573360000000E-03
      0.00000000000000E+00   7.10595567885132E-12   0.00000000000000E+00   0.00000000000000E+00  -3.81991684731918E-11
      2.13296675151786E-33  -3.81991684731918E-11   6.86753454343574E-18   0.00000000000000E+00   0.00000000000000E+00
      0.00000000000000E+00   0.00000000000000E+00   0.00000000000000E+00   0.00000000000000E+00   0.00000000000000E+00
      4.00721646014705E-18   0.00000000000000E+00   0.00000000000000E+00   0.00000000000000E+00   0.00000000000000E+00
      3.34369496801001E-18  -3.19389192072776E-33   3.34369496801001E-18  -1.59868382157490E-17   4.71786680000000E-04
      4.71786672904846E-04   0.00000000000000E+00   0.00000000000000E+00   3.81991651294968E-11   1.06092516920990E-33
      3.81991651294968E-11   5.11208721216628E-18
      1.13726402933333E-02
      0.00000000000000E+00   8.53877123563100E-12   0.00000000000000E+00   0.00000000000000E+00  -4.59013459574545E-11
      2.14633339295347E-33  -4.59013459574545E-11   6.86747430940386E-18   0.00000000000000E+00   0.00000000000000E+00
      0.00000000000000E+00   0.00000000000000E+00   0.00000000000000E+00   0.00000000000000E+00   0.00000000000000E+00
      4.00614450842760E-18   0.00000000000000E+00   0.00000000000000E+00   0.00000000000000E+00   0.00000000000000E+00
      1.88816071016174E-19  -3.21994121454992E-33   1.88816071016170E-19  -1.59868383773891E-17   5.68632014666667E-04
      5.68632006140898E-04   0.00000000000000E+00   0.00000000000000E+00   4.59013457686385E-11   1.07360782159645E-33
      4.59013457686385E-11   5.11321955955766E-18
      1.35032376560000E-02
      0.00000000000000E+00   1.01045077106632E-11   0.00000000000000E+00   0.00000000000000E+00  -5.43180617789467E-11
      2.10860789402318E-33  -5.43180617789467E-11   6.86740805251570E-18   0.00000000000000E+00   0.00000000000000E+00
      0.00000000000000E+00   0.00000000000000E+00   0.00000000000000E+00   0.00000000000000E+00   0.00000000000000E+00
      4.00496538468041E-18   0.00000000000000E+00   0.00000000000000E+00   0.00000000000000E+00   0.00000000000000E+00
     -1.23507847421462E-17  -3.15324284728858E-33  -1.23507847421462E-17  -1.59868386127770E-17   6.75161882800000E-04
      6.75161872710888E-04   0.00000000000000E+00   0.00000000000000E+00   5.43180741297315E-11   1.04463495326540E-33
      5.43180741297315E-11   5.11446517558085E-18
      1.58468947549333E-02
      0.00000000000000E+00   1.18142645404395E-11   0.00000000000000E+00   0.00000000000000E+00  -6.35089131025873E-11
      2.09757558158106E-33  -6.35089131025873E-11   6.86733517059981E-18   0.00000000000000E+00   0.00000000000000E+00
      0.00000000000000E+00   0.00000000000000E+00   0.00000000000000E+00   0.00000000000000E+00   0.00000000000000E+00
      4.00366837651268E-18   0.00000000000000E+00   0.00000000000000E+00   0.00000000000000E+00   0.00000000000000E+00
      5.51926597467656E-18  -3.11670456914226E-33   5.51926597467656E-18  -1.59868389412778E-17   7.92344737746667E-04
      7.92344725950410E-04   0.00000000000000E+00   0.00000000000000E+00   6.35089075833212E-11   1.01912898756121E-33
      6.35089075833212E-11   5.11583539416525E-18
      1.84249175637600E-02
      0.00000000000000E+00   1.36797826969407E-11   0.00000000000000E+00   0.00000000000000E+00  -7.35369921664805E-11
      2.10475154139889E-33  -7.35369921664805E-11   6.86725500129121E-18   0.00000000000000E+00   0.00000000000000E+00
      0.00000000000000E+00   0.00000000000000E+00   0.00000000000000E+00   0.00000000000000E+00   0.00000000000000E+00
      4.00224170128578E-18   0.00000000000000E+00   0.00000000000000E+00   0.00000000000000E+00   0.00000000000000E+00
      6.46647989364319E-18  -3.11441855191202E-33   6.46647989364319E-18  -1.59868393866773E-17   9.21245878188001E-04
      9.21245864529083E-04   0.00000000000000E+00   0.00000000000000E+00   7.35369857000005E-11   1.00966701051313E-33
      7.35369857000005E-11   5.11734268410035E-18
      2.12607426534693E-02
      0.00000000000000E+00   1.57134359623873E-11   0.00000000000000E+00   0.00000000000000E+00  -8.44688248508671E-11
      2.12195021426153E-33  -8.44688248508671E-11   6.86716681601681E-18   0.00000000000000E+00   0.00000000000000E+00
      0.00000000000000E+00   0.00000000000000E+00   0.00000000000000E+00   0.00000000000000E+00   0.00000000000000E+00
      4.00067239929399E-18   0.00000000000000E+00   0.00000000000000E+00   0.00000000000000E+00   0.00000000000000E+00
     -5.09410762781227E-19  -3.15558297173962E-33  -5.09410762781230E-19  -1.59868399781354E-17   1.06303713267347E-03
      1.06303711698401E-03   0.00000000000000E+00   0.00000000000000E+00   8.44688253602779E-11   1.03363275747809E-33
      8.44688253602779E-11   5.11900076282458E-18
      2.43801502521496E-02
      0.00000000000000E+00   1.79282222039887E-11   0.00000000000000E+00   0.00000000000000E+00  -9.63741468215970E-11
      2.11964699351447E-33  -9.63741468215970E-11   6.86706981338049E-18   0.00000000000000E+00   0.00000000000000E+00
      0.00000000000000E+00   0.00000000000000E+00   0.00000000000000E+00   0.00000000000000E+00   0.00000000000000E+00
      3.99894621630135E-18   0.00000000000000E+00   0.00000000000000E+00   0.00000000000000E+00   0.00000000000000E+00
      4.20008894615214E-18  -3.14735291124936E-33   4.20008894615214E-18  -1.59868407513363E-17   1.21900751260748E-03
      1.21900749470665E-03   0.00000000000000E+00   0.00000000000000E+00   9.63741426215081E-11   1.02770591773488E-33
      9.63741426215081E-11   5.12082472165444E-18
      2.78114986106979E-02
      0.00000000000000E+00   2.03376145854696E-11   0.00000000000000E+00   0.00000000000000E+00  -1.09325488062878E-10
      2.17090365110755E-33  -1.09325488062878E-10   6.86696311188782E-18   0.00000000000000E+00   0.00000000000000E+00
      0.00000000000000E+00   0.00000000000000E+00   0.00000000000000E+00   0.00000000000000E+00   0.00000000000000E+00
      3.99704747438582E-18   0.00000000000000E+00   0.00000000000000E+00   0.00000000000000E+00   0.00000000000000E+00
     -8.82105609656545E-19  -3.17647734216826E-33  -8.82105609656549E-19  -1.59868417498854E-17   1.39057493053490E-03
      1.39057491022839E-03   0.00000000000000E+00   0.00000000000000E+00   1.09325488944984E-10   1.00557369106070E-33
      1.09325488944984E-10   5.12283116361180E-18
      3.15859818051010E-02
      0.00000000000000E+00   2.29555808544647E-11   0.00000000000000E+00   0.00000000000000E+00  -1.23397781061738E-10
      2.07758700445814E-33  -1.23397781061738E-10   6.86684574194451E-18   0.00000000000000E+00   0.00000000000000E+00
      0.00000000000000E+00   0.00000000000000E+00   0.00000000000000E+00   0.00000000000000E+00   0.00000000000000E+00
      3.99495892991461E-18   0.00000000000000E+00   0.00000000000000E+00   0.00000000000000E+00   0.00000000000000E+00
     -8.02240877055938E-18  -3.07972638848842E-33  -8.02240877055938E-18  -1.59868430269797E-17   1.57929909025505E-03
      1.57929906733463E-03   0.00000000000000E+00   0.00000000000000E+00   1.23397789084147E-10   1.00213938403028E-33
      1.23397789084147E-10   5.12503835512055E-18
      3.57379133189445E-02
      0.00000000000000E+00   2.57963578636883E-11   0.00000000000000E+00   0.00000000000000E+00  -1.38667645324615E-10
      2.07160962606299E-33  -1.38667645324615E-10   6.86671663705630E-18   0.00000000000000E+00   0.00000000000000E+00
      0.00000000000000E+00   0.00000000000000E+00   0.00000000000000E+00   0.00000000000000E+00   0.00000000000000E+00
      3.99266161740116E-18   0.00000000000000E+00   0.00000000000000E+00   0.00000000000000E+00   0.00000000000000E+00
     -1.03721382928505E-17  -3.08716045165857E-33  -1.03721382928505E-17  -1.59868446474403E-17   1.78689566594722E-03
      1.78689564019040E-03   0.00000000000000E+00   0.00000000000000E+00   1.38667655696753E-10   1.01555082559558E-33
      1.38667655696753E-10   5.12746639298280E-18
      4.03050379841723E-02
      0.00000000000000E+00   2.88743872796190E-11   0.00000000000000E+00   0.00000000000000E+00  -1.55212498998804E-10
      2.04508342626328E-33  -1.55212498998804E-10   6.86657462415117E-18   0.00000000000000E+00   0.00000000000000E+00
      0.00000000000000E+00   0.00000000000000E+00   0.00000000000000E+00   0.00000000000000E+00   0.00000000000000E+00
      3.99013467782183E-18   0.00000000000000E+00   0.00000000000000E+00   0.00000000000000E+00   0.00000000000000E+00
     -1.34466450641037E-17  -3.03749731256756E-33  -1.34466450641037E-17  -1.59868466901512E-17   2.01525189920861E-03
      2.01525187037853E-03   0.00000000000000E+00   0.00000000000000E+00   1.55212512445449E-10   9.92413886304283E-34
      1.55212512445449E-10   5.13013738817821E-18
      4.53288751159228E-02
      0.00000000000000E+00   3.22040285676955E-11   0.00000000000000E+00   0.00000000000000E+00  -1.73109466070418E-10
      2.09985038536074E-33  -1.73109466070418E-10   6.86641841293564E-18   0.00000000000000E+00   0.00000000000000E+00
      0.00000000000000E+00   0.00000000000000E+00   0.00000000000000E+00   0.00000000000000E+00   0.00000000000000E+00
      3.98735516986249E-18   0.00000000000000E+00   0.00000000000000E+00   0.00000000000000E+00   0.00000000000000E+00
     -2.55444718051602E-17  -3.10172774557920E-33  -2.55444718051602E-17  -1.59868492509934E-17   2.26644375579614E-03
      2.26644372364160E-03   0.00000000000000E+00   0.00000000000000E+00   1.73109491614890E-10   1.00187736021846E-33
      1.73109491614890E-10   5.13307566819521E-18
      5.08550959608485E-02
      0.00000000000000E+00   3.57993082561842E-11   0.00000000000000E+00   0.00000000000000E+00  -1.92433949261952E-10
      2.09609340913675E-33  -1.92433949261952E-10   6.86624658418983E-18   0.00000000000000E+00   0.00000000000000E+00
      0.00000000000000E+00   0.00000000000000E+00   0.00000000000000E+00   0.00000000000000E+00   0.00000000000000E+00
      3.98429786242614E-18   0.00000000000000E+00   0.00000000000000E+00   0.00000000000000E+00   0.00000000000000E+00
     -1.64866125605321E-17  -3.07773602221285E-33  -1.64866125605321E-17  -1.59868524463990E-17   2.54275479804242E-03
      2.54275476229821E-03   0.00000000000000E+00   0.00000000000000E+00   1.92433965748565E-10   9.81642613076104E-34
      1.92433965748565E-10   5.13630799978302E-18
      5.69339388902666E-02
      0.00000000000000E+00   3.96736379728358E-11   0.00000000000000E+00   0.00000000000000E+00  -2.13257882916825E-10
      2.10846630436027E-33  -2.13257882916825E-10   6.86605757689493E-18   0.00000000000000E+00   0.00000000000000E+00
      0.00000000000000E+00   0.00000000000000E+00   0.00000000000000E+00   0.00000000000000E+00   0.00000000000000E+00
      3.98093500649121E-18   0.00000000000000E+00   0.00000000000000E+00   0.00000000000000E+00   0.00000000000000E+00
     -1.74984170337598E-17  -3.06899859243668E-33  -1.74984170337598E-17  -1.59868564175757E-17   2.84669694451333E-03
      2.84669690490085E-03   0.00000000000000E+00   0.00000000000000E+00   2.13257900415242E-10   9.60532288076412E-34
      2.13257900415242E-10   5.13986383418949E-18
      6.36206661126266E-02
      0.00000000000000E+00   4.38393947144364E-11   0.00000000000000E+00   0.00000000000000E+00  -2.35647685119885E-10
      2.09501348999723E-33  -2.35647685119885E-10   6.86584967407729E-18   0.00000000000000E+00   0.00000000000000E+00
      0.00000000000000E+00   0.00000000000000E+00   0.00000000000000E+00   0.00000000000000E+00   0.00000000000000E+00
      3.97723608434883E-18   0.00000000000000E+00   0.00000000000000E+00   0.00000000000000E+00   0.00000000000000E+00
     -3.49583138928045E-17  -3.07402151296680E-33  -3.49583138928045E-17  -1.59868613356097E-17   3.18103330563133E-03
      3.18103326185964E-03   0.00000000000000E+00   0.00000000000000E+00   2.35647720078199E-10   9.79008022969566E-34
      2.35647720078199E-10   5.14377557718355E-18
      7.09760660572226E-02
      0.00000000000000E+00   4.83074584085555E-11   0.00000000000000E+00   0.00000000000000E+00  -2.59661752773025E-10
      2.06277792365756E-33  -2.59661752773025E-10   6.86562098724182E-18   0.00000000000000E+00   0.00000000000000E+00
      0.00000000000000E+00   0.00000000000000E+00   0.00000000000000E+00   0.00000000000000E+00   0.00000000000000E+00
      3.97316753396081E-18   0.00000000000000E+00   0.00000000000000E+00   0.00000000000000E+00   0.00000000000000E+00
     -2.90138935069295E-17  -2.99661773043756E-33  -2.90138935069295E-17  -1.59868674075980E-17   3.54880330286113E-03
      3.54880325462840E-03   0.00000000000000E+00   0.00000000000000E+00   2.59661781786919E-10   9.33839806779998E-34
      2.59661781786919E-10   5.14807888639541E-18
      7.90670059962782E-02
      0.00000000000000E+00   5.30866801325179E-11   0.00000000000000E+00   0.00000000000000E+00  -2.85347448306467E-10
      2.14643269955281E-33  -2.85347448306467E-10   6.86536943925340E-18   0.00000000000000E+00   0.00000000000000E+00
      0.00000000000000E+00   0.00000000000000E+00   0.00000000000000E+00   0.00000000000000E+00   0.00000000000000E+00
      3.96869244597175E-18   0.00000000000000E+00   0.00000000000000E+00   0.00000000000000E+00   0.00000000000000E+00
     -2.90903850795617E-17  -3.07048802750970E-33  -2.90903850795617E-17  -1.59868748839779E-17   3.95335029981391E-03
      3.95335024680952E-03   0.00000000000000E+00   0.00000000000000E+00   2.85347477396852E-10   9.24055327956891E-34
      2.85347477396852E-10   5.15281299875288E-18
      8.79670399292394E-02
      0.00000000000000E+00   5.81832332303350E-11   0.00000000000000E+00   0.00000000000000E+00  -3.12737769254183E-10
      2.10935002494672E-33  -3.12737769254183E-10   6.86509274551280E-18   0.00000000000000E+00   0.00000000000000E+00
      0.00000000000000E+00   0.00000000000000E+00   0.00000000000000E+00   0.00000000000000E+00   0.00000000000000E+00
      3.96377023068534E-18   0.00000000000000E+00   0.00000000000000E+00   0.00000000000000E+00   0.00000000000000E+00
     -4.41494085393493E-17  -3.02851844571740E-33  -4.41494085393493E-17  -1.59868840672904E-17   4.39835199646197E-03
      4.39835193836913E-03   0.00000000000000E+00   0.00000000000000E+00   3.12737813403592E-10   9.19168420770677E-34
      3.12737813403592E-10   5.15802109109228E-18
      9.77570772554967E-02
      0.00000000000000E+00   6.35999088635705E-11   0.00000000000000E+00   0.00000000000000E+00  -3.41847574863010E-10
      2.14123808807955E-33  -3.41847574863010E-10   6.86478839325709E-18   0.00000000000000E+00   0.00000000000000E+00
      0.00000000000000E+00   0.00000000000000E+00   0.00000000000000E+00   0.00000000000000E+00   0.00000000000000E+00
      3.95835625205743E-18   0.00000000000000E+00   0.00000000000000E+00   0.00000000000000E+00   0.00000000000000E+00
     -4.91703675635940E-17  -3.03438289431863E-33  -4.91703675635940E-17  -1.59868953226638E-17   4.88785386277484E-03
      4.88785379927398E-03   0.00000000000000E+00   0.00000000000000E+00   3.41847624033378E-10   8.93144806239080E-34
      3.41847624033378E-10   5.16375067734932E-18
      1.07757077255497E-01
      0.00000000000000E+00   6.89333364270010E-11   0.00000000000000E+00   0.00000000000000E+00  -3.70509024482565E-10
      2.11572146956817E-33  -3.70509024482565E-10   6.86447752533379E-18   0.00000000000000E+00   0.00000000000000E+00
      0.00000000000000E+00   0.00000000000000E+00   0.00000000000000E+00   0.00000000000000E+00   0.00000000000000E+00
      3.95282665380138E-18   0.00000000000000E+00   0.00000000000000E+00   0.00000000000000E+00   0.00000000000000E+00
     -5.46226947902650E-17  -3.02462534908681E-33  -5.46226947902650E-17  -1.59869080591851E-17   5.38785386277483E-03
      5.38785379394910E-03   0.00000000000000E+00   0.00000000000000E+00   3.70509079105259E-10   9.08903879518638E-34
      3.70509079105259E-10   5.16960388004984E-18
      1.17757077255497E-01
      0.00000000000000E+00   7.40710887778110E-11   0.00000000000000E+00   0.00000000000000E+00  -3.98117984529082E-10
      2.15735445612077E-33  -3.98117984529082E-10   6.86416666906953E-18   0.00000000000000E+00   0.00000000000000E+00
      0.00000000000000E+00   0.00000000000000E+00   0.00000000000000E+00   0.00000000000000E+00   0.00000000000000E+00
      3.94729754827101E-18   0.00000000000000E+00   0.00000000000000E+00   0.00000000000000E+00   0.00000000000000E+00
     -3.98580261078733E-17  -3.02816288620085E-33  -3.98580261078733E-17  -1.59869220401979E-17   5.88785386277483E-03
      5.88785378881964E-03   0.00000000000000E+00   0.00000000000000E+00   3.98118024387109E-10   8.70808430080080E-34
      3.98118024387109E-10   5.17545782285732E-18
      1.27757077255497E-01
      0.00000000000000E+00   7.90190164257604E-11   0.00000000000000E+00   0.00000000000000E+00  -4.24706009299925E-10
      2.10331347471214E-33  -4.24706009299925E-10   6.86385582435630E-18   0.00000000000000E+00   0.00000000000000E+00
      0.00000000000000E+00   0.00000000000000E+00   0.00000000000000E+00   0.00000000000000E+00   0.00000000000000E+00
      3.94176893137125E-18   0.00000000000000E+00   0.00000000000000E+00   0.00000000000000E+00   0.00000000000000E+00
     -4.35136874215598E-17  -2.96649301671542E-33  -4.35136874215598E-17  -1.59869372572949E-17   6.38785386277483E-03
      6.38785378387974E-03   0.00000000000000E+00   0.00000000000000E+00   4.24706052813612E-10   8.63179542003282E-34
      4.24706052813612E-10   5.18131250156732E-18
      1.37757077255497E-01
      0.00000000000000E+00   8.37829253359119E-11   0.00000000000000E+00   0.00000000000000E+00  -4.50304380275977E-10
      2.11796225102250E-33  -4.50304380275977E-10   6.86354499108593E-18   0.00000000000000E+00   0.00000000000000E+00
      0.00000000000000E+00   0.00000000000000E+00   0.00000000000000E+00   0.00000000000000E+00   0.00000000000000E+00
      3.93624079904125E-18   0.00000000000000E+00   0.00000000000000E+00   0.00000000000000E+00   0.00000000000000E+00
     -4.19275190770772E-17  -2.96920804055704E-33  -4.19275190770772E-17  -1.59869537021295E-17   6.88785386277483E-03
      6.88785377912358E-03   0.00000000000000E+00   0.00000000000000E+00   4.50304422203496E-10   8.51245789534535E-34
      4.50304422203496E-10   5.18716791200231E-18
      1.47757077255497E-01
      0.00000000000000E+00   8.83685383538408E-11   0.00000000000000E+00   0.00000000000000E+00  -4.74943932560861E-10
      2.06934334927197E-33  -4.74943932560861E-10   6.86323416915042E-18   0.00000000000000E+00   0.00000000000000E+00
      0.00000000000000E+00   0.00000000000000E+00   0.00000000000000E+00   0.00000000000000E+00   0.00000000000000E+00
      3.93071314725447E-18   0.00000000000000E+00   0.00000000000000E+00   0.00000000000000E+00   0.00000000000000E+00
     -4.67439993002405E-17  -2.88496002274963E-33  -4.67439993002405E-17  -1.59869713664154E-17   7.38785386277483E-03
      7.38785377454545E-03   0.00000000000000E+00   0.00000000000000E+00   4.74943979304860E-10   8.15616673477660E-34
      4.74943979304860E-10   5.19302405001054E-18
      1.57757077255497E-01
      0.00000000000000E+00   9.27814851027143E-11   0.00000000000000E+00   0.00000000000000E+00  -4.98655046583808E-10
      2.06552326766300E-33  -4.98655046583808E-10   6.86292335844185E-18   0.00000000000000E+00   0.00000000000000E+00
      0.00000000000000E+00   0.00000000000000E+00   0.00000000000000E+00   0.00000000000000E+00   0.00000000000000E+00
      3.92518597202160E-18   0.00000000000000E+00   0.00000000000000E+00   0.00000000000000E+00   0.00000000000000E+00
     -3.65842423938833E-17  -2.86058328400253E-33  -3.65842423938833E-17  -1.59869902419394E-17   7.88785386277484E-03
      7.88785377013975E-03   0.00000000000000E+00   0.00000000000000E+00   4.98655083168050E-10   7.95060016339529E-34
      4.98655083168050E-10   5.19888091147596E-18
      1.67757077255497E-01
      0.00000000000000E+00   9.70273033609623E-11   0.00000000000000E+00   0.00000000000000E+00  -5.21467500979355E-10
      2.15677033359611E-33  -5.21467500979355E-10   6.86261255885256E-18   0.00000000000000E+00   0.00000000000000E+00
      0.00000000000000E+00   0.00000000000000E+00   0.00000000000000E+00   0.00000000000000E+00   0.00000000000000E+00
      3.91965926937757E-18   0.00000000000000E+00   0.00000000000000E+00   0.00000000000000E+00   0.00000000000000E+00
     -4.36411633184070E-17  -2.95975550012947E-33  -4.36411633184070E-17  -1.59870103205199E-17   8.38785386277484E-03
      8.38785376590091E-03   0.00000000000000E+00   0.00000000000000E+00   5.21467544620518E-10   8.02985166533359E-34
      5.21467544620518E-10   5.20473849228969E-18
      1.77757077255497E-01
      0.00000000000000E+00   1.01111396813699E-10   0.00000000000000E+00   0.00000000000000E+00  -5.43410528576997E-10
      2.08439481454734E-33  -5.43410528576997E-10   6.86230177027521E-18   0.00000000000000E+00   0.00000000000000E+00
      0.00000000000000E+00   0.00000000000000E+00   0.00000000000000E+00   0.00000000000000E+00   0.00000000000000E+00
      3.91413303541002E-18   0.00000000000000E+00   0.00000000000000E+00   0.00000000000000E+00   0.00000000000000E+00
     -4.02619933870895E-17  -2.88024267896562E-33  -4.02619933870895E-17  -1.59870315940711E-17   8.88785386277484E-03
      8.88785376182357E-03   0.00000000000000E+00   0.00000000000000E+00   5.43410568838990E-10   7.95847864418277E-34
      5.43410568838990E-10   5.21059678838593E-18
      1.87757077255497E-01
      0.00000000000000E+00   1.05039090159562E-10   0.00000000000000E+00   0.00000000000000E+00  -5.64512724196281E-10
      2.07111117779966E-33  -5.64512724196281E-10   6.86199099260265E-18   0.00000000000000E+00   0.00000000000000E+00
      0.00000000000000E+00   0.00000000000000E+00   0.00000000000000E+00   0.00000000000000E+00   0.00000000000000E+00
      3.90860726621033E-18   0.00000000000000E+00   0.00000000000000E+00   0.00000000000000E+00   0.00000000000000E+00
     -4.59419315352410E-17  -2.85781912955883E-33  -4.59419315352410E-17  -1.59870540545214E-17   9.38785386277484E-03
      9.38785375790238E-03   0.00000000000000E+00   0.00000000000000E+00   5.64512770138212E-10   7.86707951759170E-34
      5.64512770138212E-10   5.21645579570838E-18
      1.97757077255497E-01
      0.00000000000000E+00   1.08815566197075E-10   0.00000000000000E+00   0.00000000000000E+00  -5.84802072614418E-10