DF-ISE text

Info {
  version   = 1.0
  type      = xyplot
  datasets  = [
    "time"
    "source OuterVoltage" "source InnerVoltage" "source QuasiFermiPotential" "source DisplacementCurrent" "source eCurrent"
    "source hCurrent" "source TotalCurrent" "source Charge" "gate OuterVoltage" "gate InnerVoltage"
    "gate QuasiFermiPotential" "gate DisplacementCurrent" "gate eCurrent" "gate hCurrent" "gate TotalCurrent"
    "gate Charge" "substrate OuterVoltage" "substrate InnerVoltage" "substrate QuasiFermiPotential" "substrate DisplacementCurrent"
    "substrate eCurrent" "substrate hCurrent" "substrate TotalCurrent" "substrate Charge" "drain OuterVoltage"
    "drain InnerVoltage" "drain QuasiFermiPotential" "drain DisplacementCurrent" "drain eCurrent" "drain hCurrent"
    "drain TotalCurrent" "drain Charge" ]
  functions = [
    Time
    OuterVoltage InnerVoltage QuasiFermiPotential DisplacementCurrent eCurrent
    hCurrent TotalCurrent Charge OuterVoltage InnerVoltage
    QuasiFermiPotential DisplacementCurrent eCurrent hCurrent TotalCurrent
    Charge OuterVoltage InnerVoltage QuasiFermiPotential DisplacementCurrent
    eCurrent hCurrent TotalCurrent Charge OuterVoltage
    InnerVoltage QuasiFermiPotential DisplacementCurrent eCurrent hCurrent
    TotalCurrent Charge ]
}

Data {
      0.00000000000000E+00
      0.00000000000000E+00   0.00000000000000E+00   0.00000000000000E+00   0.00000000000000E+00  -1.66899499051814E-20
      5.47322335399245E-34  -1.66899499051808E-20   6.50735761101482E-18   0.00000000000000E+00   0.00000000000000E+00
      0.00000000000000E+00   0.00000000000000E+00   0.00000000000000E+00   0.00000000000000E+00   0.00000000000000E+00
      4.56860416336542E-18   0.00000000000000E+00   0.00000000000000E+00   0.00000000000000E+00   0.00000000000000E+00
      1.37632183758202E-20  -1.17006635958867E-33   1.37632183758191E-20  -1.65284333655075E-17   0.00000000000000E+00
      0.00000000000000E+00   0.00000000000000E+00   0.00000000000000E+00   2.92673152936111E-21   6.22744024189424E-34
      2.92673152936174E-21   5.45247159112727E-18
      0.00000000000000E+00
      0.00000000000000E+00   1.77477753058023E-18   0.00000000000000E+00   0.00000000000000E+00  -1.67051319084346E-18
      5.30183640846973E-34  -1.67051319084346E-18   6.50268805487060E-18   0.00000000000000E+00   0.00000000000000E+00
      0.00000000000000E+00   0.00000000000000E+00   0.00000000000000E+00   0.00000000000000E+00   0.00000000000000E+00
      4.55857149729033E-18   0.00000000000000E+00   0.00000000000000E+00   0.00000000000000E+00   0.00000000000000E+00
      1.93698964473236E-18  -1.16861393133182E-33   1.93698964473236E-18  -1.65097962606185E-17   0.00000000000000E+00
     -2.21847191322528E-18   0.00000000000000E+00   0.00000000000000E+00  -2.66476453888902E-19   6.38430290484851E-34
     -2.66476453888902E-19   5.44853670845759E-18
      1.00000000000000E-03
      0.00000000000000E+00   1.18023531055137E-11   0.00000000000000E+00   0.00000000000000E+00  -6.81356462976927E-11
      5.36465797725202E-34  -6.81356462976927E-11   6.50223150246100E-18   0.00000000000000E+00   0.00000000000000E+00
      0.00000000000000E+00   0.00000000000000E+00   0.00000000000000E+00   0.00000000000000E+00   0.00000000000000E+00
      4.54794095765358E-18   0.00000000000000E+00   0.00000000000000E+00   0.00000000000000E+00   0.00000000000000E+00
     -7.70516389148940E-18  -1.15378262738471E-33  -7.70516389148940E-18  -1.65096221070713E-17   8.60000000000000E-04
      8.59999988165617E-04   0.00000000000000E+00   0.00000000000000E+00   6.81356540028566E-11   6.17316829659510E-34
      6.81356540028566E-11   5.45944964695672E-18
      2.08666666666667E-03
      0.00000000000000E+00   2.39028275725873E-11   0.00000000000000E+00   0.00000000000000E+00  -1.37988718278708E-10
      5.73104216103957E-34  -1.37988718278708E-10   6.50173542454304E-18   0.00000000000000E+00   0.00000000000000E+00
      0.00000000000000E+00   0.00000000000000E+00   0.00000000000000E+00   0.00000000000000E+00   0.00000000000000E+00
      4.53639124014098E-18   0.00000000000000E+00   0.00000000000000E+00   0.00000000000000E+00   0.00000000000000E+00
      7.04211953183512E-16  -1.14888324794208E-33   7.04211953183512E-16  -1.65094385010935E-17   1.79453333333333E-03
      1.79453330936576E-03   0.00000000000000E+00   0.00000000000000E+00   1.37988014066755E-10   5.75779031838120E-34
      1.37988014066755E-10   5.47131183640950E-18
      3.28200000000000E-03
      0.00000000000000E+00   3.63550021600914E-11   0.00000000000000E+00   0.00000000000000E+00  -2.09867909326591E-10
      5.31132619205267E-34  -2.09867909326591E-10   6.50118978914403E-18   0.00000000000000E+00   0.00000000000000E+00
      0.00000000000000E+00   0.00000000000000E+00   0.00000000000000E+00   0.00000000000000E+00   0.00000000000000E+00
      4.52368908029908E-18   0.00000000000000E+00   0.00000000000000E+00   0.00000000000000E+00   0.00000000000000E+00
      9.45108426172950E-16  -1.07321340487314E-33   9.45108426172950E-16  -1.65092432397828E-17   2.82252000000000E-03
      2.82251996354665E-03   0.00000000000000E+00   0.00000000000000E+00   2.09866964218165E-10   5.42080785667877E-34
      2.09866964218165E-10   5.48436437033977E-18
      4.59686666666667E-03
      0.00000000000000E+00   4.90567832342739E-11   0.00000000000000E+00   0.00000000000000E+00  -2.83181246980837E-10
      5.31757320949117E-34  -2.83181246980837E-10   6.50058965005071E-18   0.00000000000000E+00   0.00000000000000E+00
      0.00000000000000E+00   0.00000000000000E+00   0.00000000000000E+00   0.00000000000000E+00   0.00000000000000E+00
      4.50971971367443E-18   0.00000000000000E+00   0.00000000000000E+00   0.00000000000000E+00   0.00000000000000E+00
      1.44430819201927E-15  -1.08448572298129E-33   1.44430819201927E-15  -1.65090364607559E-17   3.95330533333333E-03
      3.95330528414418E-03   0.00000000000000E+00   0.00000000000000E+00   2.83179802672645E-10   5.52728402032171E-34
      2.83179802672645E-10   5.49872709703077E-18
      6.04322000000000E-03
      0.00000000000000E+00   6.18906441396709E-11   0.00000000000000E+00   0.00000000000000E+00  -3.57248048961572E-10
      5.31839461742105E-34  -3.57248048961572E-10   6.49992956801653E-18   0.00000000000000E+00   0.00000000000000E+00
      0.00000000000000E+00   0.00000000000000E+00   0.00000000000000E+00   0.00000000000000E+00   0.00000000000000E+00
      4.49435698461350E-18   0.00000000000000E+00   0.00000000000000E+00   0.00000000000000E+00   0.00000000000000E+00
      1.29613686287394E-19  -1.04072949670215E-33   1.29613686287393E-19  -1.65088185568059E-17   5.19716920000000E-03
      5.19716913794310E-03   0.00000000000000E+00   0.00000000000000E+00   3.57248048831958E-10   5.08890034960041E-34
      3.57248048831958E-10   5.51453200417581E-18
      7.62456631111111E-03
      0.00000000000000E+00   7.46492216443871E-11   0.00000000000000E+00   0.00000000000000E+00  -4.30874947481535E-10
      5.17810643379602E-34  -4.30874947481535E-10   6.49920796147446E-18   0.00000000000000E+00   0.00000000000000E+00
      0.00000000000000E+00   0.00000000000000E+00   0.00000000000000E+00   0.00000000000000E+00   0.00000000000000E+00
      4.47756459971941E-18   0.00000000000000E+00   0.00000000000000E+00   0.00000000000000E+00   0.00000000000000E+00
     -2.57460199501364E-19  -1.00976743284610E-33  -2.57460199501365E-19  -1.65085915905039E-17   6.55712702755556E-03
      6.55712695270629E-03   0.00000000000000E+00   0.00000000000000E+00   4.30874947738995E-10   4.91956789466497E-34
      4.30874947738995E-10   5.53181902931007E-18
      9.35350494459260E-03
      0.00000000000000E+00   8.71961032415612E-11   0.00000000000000E+00   0.00000000000000E+00  -5.03272889315888E-10
      5.38498978135555E-34  -5.03272889315888E-10   6.49841910183545E-18   0.00000000000000E+00   0.00000000000000E+00
      0.00000000000000E+00   0.00000000000000E+00   0.00000000000000E+00   0.00000000000000E+00   0.00000000000000E+00
      4.45920983448329E-18   0.00000000000000E+00   0.00000000000000E+00   0.00000000000000E+00   0.00000000000000E+00
      2.86737167042941E-19  -1.00860433882988E-33   2.86737167042940E-19  -1.65083566910991E-17   8.04401425234963E-03
      8.04401416492039E-03   0.00000000000000E+00   0.00000000000000E+00   5.03272889029151E-10   4.70105360694323E-34
      5.03272889029151E-10   5.55072775478033E-18
      1.12438111838657E-02
      0.00000000000000E+00   9.93874174780656E-11   0.00000000000000E+00   0.00000000000000E+00  -5.73612091342675E-10
      5.39296992540564E-34  -5.73612091342675E-10   6.49755672775031E-18   0.00000000000000E+00   0.00000000000000E+00
      0.00000000000000E+00   0.00000000000000E+00   0.00000000000000E+00   0.00000000000000E+00   0.00000000000000E+00
      4.43914768490029E-18   0.00000000000000E+00   0.00000000000000E+00   0.00000000000000E+00   0.00000000000000E+00
      7.98702805968464E-20  -1.00997870584293E-33   7.98702805968454E-20  -1.65081154148922E-17   9.66967761812449E-03
      9.66967751847188E-03   0.00000000000000E+00   0.00000000000000E+00   5.73612091262805E-10   4.70681713302365E-34
      5.73612091262805E-10   5.57141100224160E-18
      1.33105460054709E-02
      0.00000000000000E+00   1.11075896863968E-10   0.00000000000000E+00   0.00000000000000E+00  -6.41043914320811E-10
      5.67978623526164E-34  -6.41043914320811E-10   6.49661399556610E-18   0.00000000000000E+00   0.00000000000000E+00
      0.00000000000000E+00   0.00000000000000E+00   0.00000000000000E+00   0.00000000000000E+00   0.00000000000000E+00
      4.41721973491180E-18   0.00000000000000E+00   0.00000000000000E+00   0.00000000000000E+00   0.00000000000000E+00
      7.77841202879203E-20  -9.96079580660528E-34   7.77841202879193E-20  -1.65078698312016E-17   1.14470695647050E-02
      1.14470694533333E-02   0.00000000000000E+00   0.00000000000000E+00   6.41043914243027E-10   4.28100957134365E-34
      6.41043914243027E-10   5.59403610072379E-18
      1.55701760770927E-02
      0.00000000000000E+00   1.22116318896745E-10   0.00000000000000E+00   0.00000000000000E+00  -7.04732349308052E-10
      5.53846868727184E-34  -7.04732349308052E-10   6.49558342513151E-18   0.00000000000000E+00   0.00000000000000E+00
      0.00000000000000E+00   0.00000000000000E+00   0.00000000000000E+00   0.00000000000000E+00   0.00000000000000E+00
      4.39325291807100E-18   0.00000000000000E+00   0.00000000000000E+00   0.00000000000000E+00   0.00000000000000E+00
     -1.93609142097311E-19  -9.58093197717188E-34  -1.93609142097312E-19  -1.65076226199847E-17   1.33903514262997E-02
      1.33903513038586E-02   0.00000000000000E+00   0.00000000000000E+00   7.04732349501661E-10   4.04246328990004E-34
      7.04732349501661E-10   5.61878627678214E-18
      1.80407049553991E-02
      0.00000000000000E+00   1.32372125537778E-10   0.00000000000000E+00   0.00000000000000E+00  -7.63892217675295E-10
      5.48261601445305E-34  -7.63892217675295E-10   6.49445684052448E-18   0.00000000000000E+00   0.00000000000000E+00
      0.00000000000000E+00   0.00000000000000E+00   0.00000000000000E+00   0.00000000000000E+00   0.00000000000000E+00
      4.36705816415461E-18   0.00000000000000E+00   0.00000000000000E+00   0.00000000000000E+00   0.00000000000000E+00
     -8.97308195858821E-20  -9.17661535584864E-34  -8.97308195858830E-20  -1.65073771832503E-17   1.55150062616432E-02
      1.55150061289195E-02   0.00000000000000E+00   0.00000000000000E+00   7.63892217765026E-10   3.69399934139559E-34
      7.63892217765026E-10   5.64586217857119E-18
      2.07418165290141E-02
      0.00000000000000E+00   1.41723012161075E-10   0.00000000000000E+00   0.00000000000000E+00  -8.17833234401673E-10
      5.51320310044025E-34  -8.17833234401673E-10   6.49322530521369E-18   0.00000000000000E+00   0.00000000000000E+00
      0.00000000000000E+00   0.00000000000000E+00   0.00000000000000E+00   0.00000000000000E+00   0.00000000000000E+00
      4.33842891975354E-18   0.00000000000000E+00   0.00000000000000E+00   0.00000000000000E+00   0.00000000000000E+00
     -2.05246060356190E-19  -8.96442639586450E-34  -2.05246060356191E-19  -1.65071377714007E-17   1.78379622149521E-02
      1.78379620728529E-02   0.00000000000000E+00   0.00000000000000E+00   8.17833234606919E-10   3.45122329542425E-34
      8.17833234606919E-10   5.67548354643347E-18
      2.36950318494999E-02
      0.00000000000000E+00   1.50073722463318E-10   0.00000000000000E+00   0.00000000000000E+00  -8.66010505380155E-10
      5.16159573314924E-34  -8.66010505380155E-10   6.49187905108632E-18   0.00000000000000E+00   0.00000000000000E+00
      0.00000000000000E+00   0.00000000000000E+00   0.00000000000000E+00   0.00000000000000E+00   0.00000000000000E+00
      4.30713952888913E-18   0.00000000000000E+00   0.00000000000000E+00   0.00000000000000E+00   0.00000000000000E+00
     -2.55254361094709E-19  -8.15963355566394E-34  -2.55254361094710E-19  -1.65069096231209E-17   2.03777273905699E-02
      2.03777272400977E-02   0.00000000000000E+00   0.00000000000000E+00   8.66010505635409E-10   2.99803782251471E-34
      8.66010505635409E-10   5.70789104314543E-18
      2.69238805998977E-02
      0.00000000000000E+00   1.57363208090706E-10   0.00000000000000E+00   0.00000000000000E+00  -9.08077706353874E-10
      5.48864516420165E-34  -9.08077706353874E-10   6.49040740079884E-18   0.00000000000000E+00   0.00000000000000E+00
      0.00000000000000E+00   0.00000000000000E+00   0.00000000000000E+00   0.00000000000000E+00   0.00000000000000E+00
      4.27294346157676E-18   0.00000000000000E+00   0.00000000000000E+00   0.00000000000000E+00   0.00000000000000E+00
     -2.53740878901224E-20  -8.42530781231057E-34  -2.53740878901232E-20  -1.65066991217717E-17   2.31545373159120E-02
      2.31545371581307E-02   0.00000000000000E+00   0.00000000000000E+00   9.08077706379248E-10   2.93666264810892E-34
      9.08077706379248E-10   5.74334825939615E-18
      3.04540885669992E-02
      0.00000000000000E+00   1.63573576623564E-10   0.00000000000000E+00   0.00000000000000E+00  -9.43938197163996E-10
      5.34010173523526E-34  -9.43938197163996E-10   6.48879868276289E-18   0.00000000000000E+00   0.00000000000000E+00
      0.00000000000000E+00   0.00000000000000E+00   0.00000000000000E+00   0.00000000000000E+00   0.00000000000000E+00
      4.23557137392336E-18   0.00000000000000E+00   0.00000000000000E+00   0.00000000000000E+00   0.00000000000000E+00
     -5.81129283424044E-19  -7.93709273099643E-34  -5.81129283424045E-19  -1.65065139661994E-17   2.61905161676193E-02
      2.61905160036109E-02   0.00000000000000E+00   0.00000000000000E+00   9.43938197745126E-10   2.59699099576116E-34
      9.43938197745126E-10   5.78214390951309E-18
      3.43137826110303E-02
      0.00000000000000E+00   1.68737724450811E-10   0.00000000000000E+00   0.00000000000000E+00  -9.73789069375118E-10
      5.25512336494816E-34  -9.73789069375118E-10   6.48704013812333E-18   0.00000000000000E+00   0.00000000000000E+00
      0.00000000000000E+00   0.00000000000000E+00   0.00000000000000E+00   0.00000000000000E+00   0.00000000000000E+00
      4.19472898419890E-18   0.00000000000000E+00   0.00000000000000E+00   0.00000000000000E+00   0.00000000000000E+00
     -4.51933517119518E-19  -7.54487944536921E-34  -4.51933517119519E-19  -1.65063633577549E-17   2.95098530454860E-02
      2.95098528762994E-02   0.00000000000000E+00   0.00000000000000E+00   9.73789069827051E-10   2.28975608042106E-34
      9.73789069827051E-10   5.82459423543278E-18
      3.85337147658375E-02
      0.00000000000000E+00   1.72944267989324E-10   0.00000000000000E+00   0.00000000000000E+00  -9.98149034818001E-10
      5.22534762289731E-34  -9.98149034818001E-10   6.48511781891207E-18   0.00000000000000E+00   0.00000000000000E+00
      0.00000000000000E+00   0.00000000000000E+00   0.00000000000000E+00   0.00000000000000E+00   0.00000000000000E+00
      4.15009474443867E-18   0.00000000000000E+00   0.00000000000000E+00   0.00000000000000E+00   0.00000000000000E+00
     -1.76175220997464E-18  -7.20632370967123E-34  -1.76175220997464E-18  -1.65062581996153E-17   3.31389946986203E-02
      3.31389945252161E-02   0.00000000000000E+00   0.00000000000000E+00   9.98149036579754E-10   1.98097608677392E-34
      9.98149036579754E-10   5.87104563626450E-18
      4.31475072550935E-02
      0.00000000000000E+00   1.76337524161394E-10   0.00000000000000E+00   0.00000000000000E+00  -1.01785763461196E-09
      5.29366341645546E-34  -1.01785763461196E-09   6.48301647665050E-18   0.00000000000000E+00   0.00000000000000E+00
      0.00000000000000E+00   0.00000000000000E+00   0.00000000000000E+00   0.00000000000000E+00   0.00000000000000E+00
      4.10131728585035E-18   0.00000000000000E+00   0.00000000000000E+00   0.00000000000000E+00   0.00000000000000E+00
     -3.15323625270007E-18  -6.96482290780520E-34  -3.15323625270008E-18  -1.65062113056066E-17   3.71068562393804E-02
      3.71068560625751E-02   0.00000000000000E+00   0.00000000000000E+00   1.01785763776519E-09   1.67115949134974E-34
      1.01785763776519E-09   5.92187754310572E-18
      4.81919203766800E-02
      0.00000000000000E+00   1.79109076208195E-10   0.00000000000000E+00   0.00000000000000E+00  -1.03402558929454E-09
      5.33272816533399E-34  -1.03402558929454E-09   6.48071944057997E-18   0.00000000000000E+00   0.00000000000000E+00
      0.00000000000000E+00   0.00000000000000E+00   0.00000000000000E+00   0.00000000000000E+00   0.00000000000000E+00
      4.04801262117765E-18   0.00000000000000E+00   0.00000000000000E+00   0.00000000000000E+00   0.00000000000000E+00
     -4.49763064800479E-18  -6.85217247088987E-34  -4.49763064800479E-18  -1.65062376222102E-17   4.14450515239448E-02
      4.14450513443633E-02   0.00000000000000E+00   0.00000000000000E+00   1.03402559379217E-09   1.51944430555588E-34
      1.03402559379217E-09   5.97750556045262E-18
      5.37071453896146E-02
      0.00000000000000E+00   1.81480243768430E-10   0.00000000000000E+00   0.00000000000000E+00  -1.04793334773073E-09
      5.39010412969144E-34  -1.04793334773073E-09   6.47820848466485E-18   0.00000000000000E+00   0.00000000000000E+00
      0.00000000000000E+00   0.00000000000000E+00   0.00000000000000E+00   0.00000000000000E+00   0.00000000000000E+00
      3.98976107929697E-18   0.00000000000000E+00   0.00000000000000E+00   0.00000000000000E+00   0.00000000000000E+00
     -1.59352785648548E-17  -6.68579500481389E-34  -1.59352785648548E-17  -1.65063544605000E-17   4.61881450350685E-02
      4.61881448531149E-02   0.00000000000000E+00   0.00000000000000E+00   1.04793336366601E-09   1.29569087512245E-34
      1.04793336366601E-09   6.03838489653818E-18
      5.97371247370897E-02
      0.00000000000000E+00   1.83677631324592E-10   0.00000000000000E+00   0.00000000000000E+00  -1.06088915948593E-09
      5.65421151556079E-34  -1.06088915948593E-09   6.47546368253167E-18   0.00000000000000E+00   0.00000000000000E+00
      0.00000000000000E+00   0.00000000000000E+00   0.00000000000000E+00   0.00000000000000E+00   0.00000000000000E+00
      3.92610395505236E-18   0.00000000000000E+00   0.00000000000000E+00   0.00000000000000E+00   0.00000000000000E+00
     -1.76776462447270E-17  -6.70516629885877E-34  -1.76776462447270E-17  -1.65065817446374E-17   5.13739272738972E-02
      5.13739270897491E-02   0.00000000000000E+00   0.00000000000000E+00   1.06088917716358E-09   1.05095478329799E-34
      1.06088917716358E-09   6.10501410705336E-18
      6.63299021569959E-02
      0.00000000000000E+00   1.85901837100324E-10   0.00000000000000E+00   0.00000000000000E+00  -1.07405116433269E-09
      5.47489832295592E-34  -1.07405116433269E-09   6.47246324951389E-18   0.00000000000000E+00   0.00000000000000E+00
      0.00000000000000E+00   0.00000000000000E+00   0.00000000000000E+00   0.00000000000000E+00   0.00000000000000E+00
      3.85653985407577E-18   0.00000000000000E+00   0.00000000000000E+00   0.00000000000000E+00   0.00000000000000E+00
     -2.16214558243579E-17  -6.32640147283519E-34  -2.16214558243579E-17  -1.65069422796251E-17   5.70437158550165E-02
      5.70437156686518E-02   0.00000000000000E+00   0.00000000000000E+00   1.07405118595414E-09   8.51503149879276E-35
      1.07405118595414E-09   6.17793917603546E-18
      7.35380054694266E-02
      0.00000000000000E+00   1.88294748347475E-10   0.00000000000000E+00   0.00000000000000E+00  -1.08823485234319E-09
      5.07158024626226E-34  -1.08823485234319E-09   6.46918337038197E-18   0.00000000000000E+00   0.00000000000000E+00
      0.00000000000000E+00   0.00000000000000E+00   0.00000000000000E+00   0.00000000000000E+00   0.00000000000000E+00
      3.78052070851428E-18   0.00000000000000E+00   0.00000000000000E+00   0.00000000000000E+00   0.00000000000000E+00
      3.40984267809915E-20  -5.77283885999103E-34   3.40984267809910E-20  -1.65074620435837E-17   6.32426847037069E-02
      6.32426845149619E-02   0.00000000000000E+00   0.00000000000000E+00   1.08823485230909E-09   7.01258613728766E-35
      1.08823485230909E-09   6.25775796468746E-18
      8.13708110689347E-02
      0.00000000000000E+00   1.90917900596279E-10   0.00000000000000E+00   0.00000000000000E+00  -1.10379358423580E-09
      5.60803457275655E-34  -1.10379358423580E-09   6.46561986925600E-18   0.00000000000000E+00   0.00000000000000E+00
      0.00000000000000E+00   0.00000000000000E+00   0.00000000000000E+00   0.00000000000000E+00   0.00000000000000E+00
      3.69795382678895E-18   0.00000000000000E+00   0.00000000000000E+00   0.00000000000000E+00   0.00000000000000E+00
      1.29240167509296E-19  -6.16003204240949E-34   1.29240167509295E-19  -1.65081657251326E-17   6.99788975192838E-02
      6.99788973279333E-02   0.00000000000000E+00   0.00000000000000E+00   1.10379358410656E-09   5.51997469652941E-35
      1.10379358410656E-09   6.34459202908772E-18
      8.98824598204001E-02
      0.00000000000000E+00   1.93815300342997E-10   0.00000000000000E+00   0.00000000000000E+00  -1.12098313815869E-09
      5.56338581263036E-34  -1.12098313815869E-09   6.46174820321727E-18   0.00000000000000E+00   0.00000000000000E+00
      0.00000000000000E+00   0.00000000000000E+00   0.00000000000000E+00   0.00000000000000E+00   0.00000000000000E+00
      3.60827464131447E-18   0.00000000000000E+00   0.00000000000000E+00   0.00000000000000E+00   0.00000000000000E+00
      5.43222283060021E-21  -5.98056999582019E-34   5.43222283059961E-21  -1.65090828736574E-17   7.72989154455441E-02
      7.72989152513191E-02   0.00000000000000E+00   0.00000000000000E+00   1.12098313815326E-09   4.17184183189823E-35
      1.12098313815326E-09   6.43906002912566E-18
      9.91317847969926E-02
      0.00000000000000E+00   1.97011869013711E-10   0.00000000000000E+00   0.00000000000000E+00  -1.13995308050702E-09
      5.39848329727001E-34  -1.13995308050702E-09   6.45754170335770E-18   0.00000000000000E+00   0.00000000000000E+00
      0.00000000000000E+00   0.00000000000000E+00   0.00000000000000E+00   0.00000000000000E+00   0.00000000000000E+00
      3.51086973445757E-18   0.00000000000000E+00   0.00000000000000E+00   0.00000000000000E+00   0.00000000000000E+00
     -1.93862535218196E-19  -5.72552761678711E-34  -1.93862535218197E-19  -1.65102462958494E-17   8.52533349254136E-02
      8.52533347280179E-02   0.00000000000000E+00   0.00000000000000E+00   1.13995308070088E-09   3.27044319517092E-35
      1.13995308070088E-09   6.54183485803418E-18
      1.09131784796993E-01
      0.00000000000000E+00   2.00497544507214E-10   0.00000000000000E+00   0.00000000000000E+00  -1.16065067003898E-09
      5.14570673836316E-34  -1.16065067003898E-09   6.45299454847672E-18   0.00000000000000E+00   0.00000000000000E+00
      0.00000000000000E+00   0.00000000000000E+00   0.00000000000000E+00   0.00000000000000E+00   0.00000000000000E+00
      3.40560860929413E-18   0.00000000000000E+00   0.00000000000000E+00   0.00000000000000E+00   0.00000000000000E+00
     -2.77459175081978E-20  -5.37605643226344E-34  -2.77459175081984E-20  -1.65116844711965E-17   9.38533349254136E-02
      9.38533347245616E-02   0.00000000000000E+00   0.00000000000000E+00   1.16065067006673E-09   2.30349693900285E-35
      1.16065067006673E-09   6.65308131342574E-18
      1.19131784796993E-01
      0.00000000000000E+00   2.04003489734893E-10   0.00000000000000E+00   0.00000000000000E+00  -1.18148494099232E-09
      5.42826743696112E-34  -1.18148494099232E-09   6.44844808034314E-18   0.00000000000000E+00   0.00000000000000E+00
      0.00000000000000E+00   0.00000000000000E+00   0.00000000000000E+00   0.00000000000000E+00   0.00000000000000E+00
      3.30039348933630E-18   0.00000000000000E+00   0.00000000000000E+00   0.00000000000000E+00   0.00000000000000E+00
      1.11762309452064E-19  -5.60900112546573E-34   1.11762309452063E-19  -1.65132950707515E-17   1.02453334925414E-01
      1.02453334721090E-01   0.00000000000000E+00   0.00000000000000E+00   1.18148494088056E-09   1.80733688504602E-35
      1.18148494088056E-09   6.76445350107208E-18
      1.29131784796993E-01
      0.00000000000000E+00   2.07535450095309E-10   0.00000000000000E+00   0.00000000000000E+00  -1.20249068588942E-09
      5.41884753616336E-34  -1.20249068588942E-09   6.44390221774982E-18   0.00000000000000E+00   0.00000000000000E+00
      0.00000000000000E+00   0.00000000000000E+00   0.00000000000000E+00   0.00000000000000E+00   0.00000000000000E+00
      3.19521978215862E-18   0.00000000000000E+00   0.00000000000000E+00   0.00000000000000E+00   0.00000000000000E+00
     -3.22037397748071E-20  -5.55092034520957E-34  -3.22037397748076E-20  -1.65150642243736E-17   1.11053334925414E-01
      1.11053334717598E-01   0.00000000000000E+00   0.00000000000000E+00   1.20249068592162E-09   1.32072809046212E-35
      1.20249068592162E-09   6.87594222446513E-18
      1.39131784796993E-01
      0.00000000000000E+00   2.11100984365966E-10   0.00000000000000E+00   0.00000000000000E+00  -1.22371181558452E-09
      5.08652938110249E-34  -1.22371181558452E-09   6.43935688938229E-18   0.00000000000000E+00   0.00000000000000E+00
      0.00000000000000E+00   0.00000000000000E+00   0.00000000000000E+00   0.00000000000000E+00   0.00000000000000E+00
      3.09008349086661E-18   0.00000000000000E+00   0.00000000000000E+00   0.00000000000000E+00   0.00000000000000E+00
      1.74072319653255E-19  -5.18344894311819E-34   1.74072319653254E-19  -1.65169794410966E-17   1.19653334925414E-01
      1.19653334714073E-01   0.00000000000000E+00   0.00000000000000E+00   1.22371181541045E-09   9.69195620156974E-36
      1.22371181541045E-09   6.98753906084772E-18
      1.49131784796993E-01
      0.00000000000000E+00   2.14704959874241E-10   0.00000000000000E+00   0.00000000000000E+00  -1.24517649956262E-09
      5.43726142158431E-34  -1.24517649956262E-09   6.43481203398343E-18   0.00000000000000E+00   0.00000000000000E+00
      0.00000000000000E+00   0.00000000000000E+00   0.00000000000000E+00   0.00000000000000E+00   0.00000000000000E+00
      2.98498115655706E-18   0.00000000000000E+00   0.00000000000000E+00   0.00000000000000E+00   0.00000000000000E+00
     -7.06391618268173E-20  -5.50688614392053E-34  -7.06391618268179E-20  -1.65190294759602E-17   1.28253334925414E-01
      1.28253334710506E-01   0.00000000000000E+00   0.00000000000000E+00   1.24517649963326E-09   6.96247223362104E-36
      1.24517649963326E-09   7.09923628541975E-18
      1.59131784796993E-01
      0.00000000000000E+00   2.18350066739176E-10   0.00000000000000E+00   0.00000000000000E+00  -1.26690013934599E-09
      5.67311927061860E-34  -1.26690013934599E-09   6.43026759762003E-18   0.00000000000000E+00   0.00000000000000E+00
      0.00000000000000E+00   0.00000000000000E+00   0.00000000000000E+00   0.00000000000000E+00   0.00000000000000E+00
      2.87990976521693E-18   0.00000000000000E+00   0.00000000000000E+00   0.00000000000000E+00   0.00000000000000E+00
     -2.01964364913939E-20  -5.72347857851311E-34  -2.01964364913945E-20  -1.65212041651284E-17   1.36853334925414E-01
      1.36853334706893E-01   0.00000000000000E+00   0.00000000000000E+00   1.26690013936618E-09   5.03593078945090E-36
      1.26690013936618E-09   7.21102680229143E-18
      1.69131784796993E-01
      0.00000000000000E+00   2.22037575701483E-10   0.00000000000000E+00   0.00000000000000E+00  -1.28888995238376E-09
      5.22387674480153E-34  -1.28888995238376E-09   6.42572353131576E-18   0.00000000000000E+00   0.00000000000000E+00
      0.00000000000000E+00   0.00000000000000E+00   0.00000000000000E+00   0.00000000000000E+00   0.00000000000000E+00
      2.77486663775569E-18   0.00000000000000E+00   0.00000000000000E+00   0.00000000000000E+00   0.00000000000000E+00
     -1.05368364956047E-19  -5.26435416591968E-34  -1.05368364956048E-19  -1.65234942470406E-17   1.45453334925414E-01
      1.45453334703238E-01   0.00000000000000E+00   0.00000000000000E+00   1.28888995248912E-09   4.04774211181470E-36
      1.28888995248912E-09   7.32290407796921E-18
      1.79131784796993E-01
      0.00000000000000E+00   2.25767824856281E-10   0.00000000000000E+00   0.00000000000000E+00  -1.31114792504809E-09
      5.05316107111239E-34  -1.31114792504809E-09   6.42117979033716E-18   0.00000000000000E+00   0.00000000000000E+00
      0.00000000000000E+00   0.00000000000000E+00   0.00000000000000E+00   0.00000000000000E+00   0.00000000000000E+00
      2.66984937451313E-18   0.00000000000000E+00   0.00000000000000E+00   0.00000000000000E+00   0.00000000000000E+00
      1.36614675595655E-19  -5.08264486114022E-34   1.36614675595654E-19  -1.65258912531289E-17   1.54053334925414E-01
      1.54053334699540E-01   0.00000000000000E+00   0.00000000000000E+00   1.31114792491148E-09   2.94837900278327E-36
      1.31114792491148E-09   7.43486208827868E-18
      1.89131784796993E-01
      0.00000000000000E+00   2.29540737888137E-10   0.00000000000000E+00   0.00000000000000E+00  -1.33367379269299E-09