DF-ISE text

Info {
  version   = 1.0
  type      = xyplot
  datasets  = [
    "time"
    "source OuterVoltage" "source InnerVoltage" "source QuasiFermiPotential" "source DisplacementCurrent" "source eCurrent"
    "source hCurrent" "source TotalCurrent" "source Charge" "gate OuterVoltage" "gate InnerVoltage"
    "gate QuasiFermiPotential" "gate DisplacementCurrent" "gate eCurrent" "gate hCurrent" "gate TotalCurrent"
    "gate Charge" "substrate OuterVoltage" "substrate InnerVoltage" "substrate QuasiFermiPotential" "substrate DisplacementCurrent"
    "substrate eCurrent" "substrate hCurrent" "substrate TotalCurrent" "substrate Charge" "drain OuterVoltage"
    "drain InnerVoltage" "drain QuasiFermiPotential" "drain DisplacementCurrent" "drain eCurrent" "drain hCurrent"
    "drain TotalCurrent" "drain Charge" ]
  functions = [
    Time
    OuterVoltage InnerVoltage QuasiFermiPotential DisplacementCurrent eCurrent
    hCurrent TotalCurrent Charge OuterVoltage InnerVoltage
    QuasiFermiPotential DisplacementCurrent eCurrent hCurrent TotalCurrent
    Charge OuterVoltage InnerVoltage QuasiFermiPotential DisplacementCurrent
    eCurrent hCurrent TotalCurrent Charge OuterVoltage
    InnerVoltage QuasiFermiPotential DisplacementCurrent eCurrent hCurrent
    TotalCurrent Charge ]
}

Data {
      0.00000000000000E+00
      0.00000000000000E+00   0.00000000000000E+00   0.00000000000000E+00   0.00000000000000E+00   4.84381537268300E-21
      6.92048943143942E-36   4.84381537268301E-21   6.29221457344147E-18   0.00000000000000E+00   0.00000000000000E+00
      0.00000000000000E+00   0.00000000000000E+00   0.00000000000000E+00   0.00000000000000E+00   0.00000000000000E+00
      1.75245608354471E-18   0.00000000000000E+00   0.00000000000000E+00   0.00000000000000E+00   0.00000000000000E+00
     -7.40537015987379E-22   3.45885513331662E-35  -7.40537015987345E-22  -1.36991555621685E-17   0.00000000000000E+00
      0.00000000000000E+00   0.00000000000000E+00   0.00000000000000E+00  -4.10327835669563E-21  -4.15090407646056E-35
     -4.10327835669567E-21   5.65448490518241E-18
      0.00000000000000E+00
      0.00000000000000E+00   4.31195949331112E-19   0.00000000000000E+00   0.00000000000000E+00  -1.33162747487825E-18
     -3.22789194345120E-36  -1.33162747487825E-18   6.28773323508912E-18   0.00000000000000E+00   0.00000000000000E+00
      0.00000000000000E+00   0.00000000000000E+00   0.00000000000000E+00   0.00000000000000E+00   0.00000000000000E+00
      1.74583106493488E-18   0.00000000000000E+00   0.00000000000000E+00   0.00000000000000E+00   0.00000000000000E+00
      2.17347135073220E-18   4.18548826193284E-35   2.17347135073220E-18  -1.36843004899840E-17   0.00000000000000E+00
      0.00000000000000E+00   0.00000000000000E+00   0.00000000000000E+00  -8.41843875853953E-19  -3.86269906758772E-35
     -8.41843875853953E-19   5.65073618996000E-18
      1.00000000000000E-03
      0.00000000000000E+00   2.24206081696716E-11   0.00000000000000E+00   0.00000000000000E+00  -1.36696530435783E-10
     -7.62459674492580E-36  -1.36696530435783E-10   6.28724714660438E-18   0.00000000000000E+00   0.00000000000000E+00
      0.00000000000000E+00   0.00000000000000E+00   0.00000000000000E+00   0.00000000000000E+00   0.00000000000000E+00
      1.74017536213326E-18   0.00000000000000E+00   0.00000000000000E+00   0.00000000000000E+00   0.00000000000000E+00
     -5.44958443258423E-20   4.12711692324058E-35  -5.44958443258422E-20  -1.36840822811512E-17   4.30000000000000E-04
      4.29999977143964E-04   0.00000000000000E+00   0.00000000000000E+00   1.36696530490279E-10  -3.36465724874799E-35
      1.36696530490279E-10   5.65665977241347E-18
      2.08666666666667E-03
      0.00000000000000E+00   4.60287627546932E-11   0.00000000000000E+00   0.00000000000000E+00  -2.80631136704247E-10
     -6.71849360002362E-36  -2.80631136704247E-10   6.28671897359399E-18   0.00000000000000E+00   0.00000000000000E+00
      0.00000000000000E+00   0.00000000000000E+00   0.00000000000000E+00   0.00000000000000E+00   0.00000000000000E+00
      1.73403016455645E-18   0.00000000000000E+00   0.00000000000000E+00   0.00000000000000E+00   0.00000000000000E+00
      7.40657340374910E-17   4.60926423853318E-35   7.40657340374910E-17  -1.36838470018305E-17   8.97266666666667E-04
      8.97266619744147E-04   0.00000000000000E+00   0.00000000000000E+00   2.80631062638514E-10  -3.93741487853081E-35
      2.80631062638514E-10   5.66309786368000E-18
      3.28200000000000E-03
      0.00000000000000E+00   7.10715010887881E-11   0.00000000000000E+00   0.00000000000000E+00  -4.33308388229399E-10
     -2.00091911465422E-35  -4.33308388229399E-10   6.28613803515987E-18   0.00000000000000E+00   0.00000000000000E+00
      0.00000000000000E+00   0.00000000000000E+00   0.00000000000000E+00   0.00000000000000E+00   0.00000000000000E+00
      1.72727124315237E-18   0.00000000000000E+00   0.00000000000000E+00   0.00000000000000E+00   0.00000000000000E+00
      1.26375871594995E-16   5.72506516568428E-35   1.26375871594995E-16  -1.36835903975460E-17   1.41126000000000E-03
      1.41125992754865E-03   0.00000000000000E+00   0.00000000000000E+00   4.33308261853528E-10  -3.72414605103005E-35
      4.33308261853528E-10   5.67018111923371E-18
      4.59686666666667E-03
      0.00000000000000E+00   9.75065461339080E-11   0.00000000000000E+00   0.00000000000000E+00  -5.94468833751852E-10
     -2.06754301344608E-35  -5.94468833751852E-10   6.28549906543149E-18   0.00000000000000E+00   0.00000000000000E+00
      0.00000000000000E+00   0.00000000000000E+00   0.00000000000000E+00   0.00000000000000E+00   0.00000000000000E+00
      1.71983738559740E-18   0.00000000000000E+00   0.00000000000000E+00   0.00000000000000E+00   0.00000000000000E+00
      1.88653265620776E-16   7.82970289751658E-35   1.88653265620776E-16  -1.36833107832199E-17   1.97665266666667E-03
      1.97665256726721E-03   0.00000000000000E+00   0.00000000000000E+00   5.94468645098586E-10  -5.76215988407050E-35
      5.94468645098586E-10   5.67797433219103E-18
      6.04322000000000E-03
      0.00000000000000E+00   1.25267183252773E-10   0.00000000000000E+00   0.00000000000000E+00  -7.63704386379860E-10
      1.99877686634856E-35  -7.63704386379860E-10   6.28479627401713E-18   0.00000000000000E+00   0.00000000000000E+00
      0.00000000000000E+00   0.00000000000000E+00   0.00000000000000E+00   0.00000000000000E+00   0.00000000000000E+00
      1.71166128969517E-18   0.00000000000000E+00   0.00000000000000E+00   0.00000000000000E+00   0.00000000000000E+00
      3.81122002173984E-16   3.37060707861174E-35   3.81122002173984E-16  -1.36830063943866E-17   2.59858460000000E-03
      2.59858447230116E-03   0.00000000000000E+00   0.00000000000000E+00   7.63704005257857E-10  -5.36938394496029E-35
      7.63704005257857E-10   5.68654883067423E-18
      7.63420866666667E-03
      0.00000000000000E+00   1.54256834470238E-10   0.00000000000000E+00   0.00000000000000E+00  -9.40424691517456E-10
      5.54435286139092E-37  -9.40424691517456E-10   6.28402329395477E-18   0.00000000000000E+00   0.00000000000000E+00
      0.00000000000000E+00   0.00000000000000E+00   0.00000000000000E+00   0.00000000000000E+00   0.00000000000000E+00
      1.70266896026295E-18   0.00000000000000E+00   0.00000000000000E+00   0.00000000000000E+00   0.00000000000000E+00
      3.77338386978630E-16   5.71134869602505E-35   3.77338386978630E-16  -1.36826753964180E-17   3.28270972666667E-03
      3.28270956941562E-03   0.00000000000000E+00   0.00000000000000E+00   9.40424314179068E-10  -5.76679222463896E-35
      9.40424314179068E-10   5.69598314220035E-18
      9.38429620000000E-03
      0.00000000000000E+00   1.84344781009482E-10   0.00000000000000E+00   0.00000000000000E+00  -1.12383226660587E-09
      5.78096259963505E-36  -1.12383226660587E-09   6.28317312451885E-18   0.00000000000000E+00   0.00000000000000E+00
      0.00000000000000E+00   0.00000000000000E+00   0.00000000000000E+00   0.00000000000000E+00   0.00000000000000E+00
      1.69277904673759E-18   0.00000000000000E+00   0.00000000000000E+00   0.00000000000000E+00   0.00000000000000E+00
      6.13580261320546E-16   2.23635131087254E-35   6.13580261320546E-16  -1.36823158978338E-17   4.03524736600000E-03
      4.03524717807716E-03   0.00000000000000E+00   0.00000000000000E+00   1.12383165302560E-09  -2.81444757083605E-35
      1.12383165302560E-09   5.70636372657727E-18
      1.13093924866667E-02
      0.00000000000000E+00   2.15362690439824E-10   0.00000000000000E+00   0.00000000000000E+00  -1.31290042077723E-09
      1.11139192254465E-35  -1.31290042077723E-09   6.28223806838587E-18   0.00000000000000E+00   0.00000000000000E+00
      0.00000000000000E+00   0.00000000000000E+00   0.00000000000000E+00   0.00000000000000E+00   0.00000000000000E+00
      1.68190211585884E-18   0.00000000000000E+00   0.00000000000000E+00   0.00000000000000E+00   0.00000000000000E+00
      8.46687804305341E-16   2.16991470326104E-35   8.46687804305341E-16  -1.36819259687770E-17   4.86303876926667E-03
      4.86303854972411E-03   0.00000000000000E+00   0.00000000000000E+00   1.31289957408943E-09  -3.28130662580570E-35
      1.31289957408943E-09   5.71778578453232E-18
      1.34269984020000E-02
      0.00000000000000E+00   2.47102270970763E-10   0.00000000000000E+00   0.00000000000000E+00  -1.50635967146378E-09
     -5.77939854829323E-36  -1.50635967146378E-09   6.28120966256998E-18   0.00000000000000E+00   0.00000000000000E+00
      0.00000000000000E+00   0.00000000000000E+00   0.00000000000000E+00   0.00000000000000E+00   0.00000000000000E+00
      1.66993985221688E-18   0.00000000000000E+00   0.00000000000000E+00   0.00000000000000E+00   0.00000000000000E+00
      4.35359574840156E-20   4.75332109096906E-35   4.35359574840157E-20  -1.36815036645478E-17   5.77360931286000E-03
      5.77360906096219E-03   0.00000000000000E+00   0.00000000000000E+00   1.50635967142025E-09  -4.17538123613974E-35
      1.50635967142025E-09   5.73035414976095E-18
      1.57422475360978E-02
      0.00000000000000E+00   2.79128423036040E-10   0.00000000000000E+00   0.00000000000000E+00  -1.70155969457079E-09
      2.36617894321176E-35  -1.70155969457079E-09   6.28008545692483E-18   0.00000000000000E+00   0.00000000000000E+00
      0.00000000000000E+00   0.00000000000000E+00   0.00000000000000E+00   0.00000000000000E+00   0.00000000000000E+00
      1.65686390370427E-18   0.00000000000000E+00   0.00000000000000E+00   0.00000000000000E+00   0.00000000000000E+00
      1.51896923813847E-19   1.87042570381390E-35   1.51896923813847E-19  -1.36810497999207E-17   6.76916644052205E-03
      6.76916615597690E-03   0.00000000000000E+00   0.00000000000000E+00   1.70155969441889E-09  -4.23660464702566E-35
      1.70155969441889E-09   5.74410043929156E-18
      1.82735865893780E-02
      0.00000000000000E+00   3.11170126183230E-10   0.00000000000000E+00   0.00000000000000E+00  -1.89685099300310E-09
     -2.27374403203166E-36  -1.89685099300310E-09   6.27885654324803E-18   0.00000000000000E+00   0.00000000000000E+00
      0.00000000000000E+00   0.00000000000000E+00   0.00000000000000E+00   0.00000000000000E+00   0.00000000000000E+00
      1.64257082455202E-18   0.00000000000000E+00   0.00000000000000E+00   0.00000000000000E+00   0.00000000000000E+00
     -3.58406117696391E-19   3.62882328871603E-35  -3.58406117696391E-19  -1.36805628612476E-17   7.85764223343255E-03
      7.85764191622448E-03   0.00000000000000E+00   0.00000000000000E+00   1.89685099336150E-09  -3.40144888551287E-35
      1.89685099336150E-09   5.75913549344764E-18
      2.10411839542978E-02
      0.00000000000000E+00   3.42929491709109E-10   0.00000000000000E+00   0.00000000000000E+00  -2.09042263598595E-09
     -2.10887043323590E-35  -2.09042263598595E-09   6.27751318744177E-18   0.00000000000000E+00   0.00000000000000E+00
      0.00000000000000E+00   0.00000000000000E+00   0.00000000000000E+00   0.00000000000000E+00   0.00000000000000E+00
      1.62694759759199E-18   0.00000000000000E+00   0.00000000000000E+00   0.00000000000000E+00   0.00000000000000E+00
      2.62004101482135E-19   5.08561748946861E-35   2.62004101482135E-19  -1.36800414434672E-17   9.04770910034803E-03
      9.04770875076520E-03   0.00000000000000E+00   0.00000000000000E+00   2.09042263572395E-09  -2.97674705623270E-35
      2.09042263572395E-09   5.77558065843342E-18
      2.40670904066100E-02
      0.00000000000000E+00   3.74087480749138E-10   0.00000000000000E+00   0.00000000000000E+00  -2.28033658692849E-09
     -7.91382520079109E-36  -2.28033658692849E-09   6.27604475325386E-18   0.00000000000000E+00   0.00000000000000E+00
      0.00000000000000E+00   0.00000000000000E+00   0.00000000000000E+00   0.00000000000000E+00   0.00000000000000E+00
      1.60987075379651E-18   0.00000000000000E+00   0.00000000000000E+00   0.00000000000000E+00   0.00000000000000E+00
     -1.57704563713244E-19   3.44528191462377E-35  -1.57704563713244E-19  -1.36794843010705E-17   1.03488488748423E-02
      1.03488484934985E-02   0.00000000000000E+00   0.00000000000000E+00   2.28033658708620E-09  -2.65389939454466E-35
      2.28033658708620E-09   5.79356879402008E-18
      2.73754147944714E-02
      0.00000000000000E+00   4.04313449662195E-10   0.00000000000000E+00   0.00000000000000E+00  -2.46458665884544E-09
     -6.97591054433179E-36  -2.46458665884544E-09   6.27443961892641E-18   0.00000000000000E+00   0.00000000000000E+00
      0.00000000000000E+00   0.00000000000000E+00   0.00000000000000E+00   0.00000000000000E+00   0.00000000000000E+00
      1.59120540903740E-18   0.00000000000000E+00   0.00000000000000E+00   0.00000000000000E+00   0.00000000000000E+00
     -1.24034934971412E-21   3.00619830986031E-35  -1.24034934971409E-21  -1.36788904067359E-17   1.17714283616227E-02
      1.17714279494690E-02   0.00000000000000E+00   0.00000000000000E+00   2.46458665884668E-09  -2.30860725542713E-35
      2.46458665884668E-09   5.81324537877212E-18
      3.09925161251998E-02
      0.00000000000000E+00   4.33276379666681E-10   0.00000000000000E+00   0.00000000000000E+00  -2.64116702681356E-09
      1.18092195564938E-35  -2.64116702681356E-09   6.27268508621191E-18   0.00000000000000E+00   0.00000000000000E+00
      0.00000000000000E+00   0.00000000000000E+00   0.00000000000000E+00   0.00000000000000E+00   0.00000000000000E+00
      1.57080421450200E-18   0.00000000000000E+00   0.00000000000000E+00   0.00000000000000E+00   0.00000000000000E+00
     -7.70888785188439E-20   1.74051834131391E-35  -7.70888785188439E-20  -1.36782590243054E-17   1.33267819338359E-02
      1.33267814921611E-02   0.00000000000000E+00   0.00000000000000E+00   2.64116702689065E-09  -2.92144029696329E-35
      2.64116702689065E-09   5.83476972359156E-18
      3.49472135801296E-02
      0.00000000000000E+00   4.60659767761435E-10   0.00000000000000E+00   0.00000000000000E+00  -2.80816360036512E-09
     -8.33216139794429E-36  -2.80816360036512E-09   6.27076728094636E-18   0.00000000000000E+00   0.00000000000000E+00
      0.00000000000000E+00   0.00000000000000E+00   0.00000000000000E+00   0.00000000000000E+00   0.00000000000000E+00
      1.54850620916694E-18   0.00000000000000E+00   0.00000000000000E+00   0.00000000000000E+00   0.00000000000000E+00
     -1.52010779284936E-19   3.69375123324655E-35  -1.52010779284936E-19  -1.36775897933384E-17   1.50273018394557E-02
      1.50273013698717E-02   0.00000000000000E+00   0.00000000000000E+00   2.80816360051713E-09  -2.86053509345212E-35
      2.80816360051713E-09   5.85831630322514E-18
      3.92710161308528E-02
      0.00000000000000E+00   4.86179360521544E-10   0.00000000000000E+00   0.00000000000000E+00  -2.96386231077853E-09
      1.48637566474300E-35  -2.96386231077853E-09   6.26867104443117E-18   0.00000000000000E+00   0.00000000000000E+00
      0.00000000000000E+00   0.00000000000000E+00   0.00000000000000E+00   0.00000000000000E+00   0.00000000000000E+00
      1.52413556661281E-18   0.00000000000000E+00   0.00000000000000E+00   0.00000000000000E+00   0.00000000000000E+00
     -2.77083338750575E-19   4.64481508992974E-36  -2.77083338750575E-19  -1.36768828286777E-17   1.68865369362667E-02
      1.68865364406757E-02   0.00000000000000E+00   0.00000000000000E+00   2.96386231105561E-09  -1.95085717373597E-35
      2.96386231105561E-09   5.88407621763376E-18
      4.39983735863102E-02
      0.00000000000000E+00   5.09604056753179E-10   0.00000000000000E+00   0.00000000000000E+00  -3.10687665663761E-09
      3.14903354467995E-36  -3.10687665663761E-09   6.26637981463501E-18   0.00000000000000E+00   0.00000000000000E+00
      0.00000000000000E+00   0.00000000000000E+00   0.00000000000000E+00   0.00000000000000E+00   0.00000000000000E+00
      1.49750022427065E-18   0.00000000000000E+00   0.00000000000000E+00   0.00000000000000E+00   0.00000000000000E+00
      2.23727470565344E-19   1.34553372714954E-35   2.23727470565344E-19  -1.36761388339837E-17   1.89193006421134E-02
      1.89193001226540E-02   0.00000000000000E+00   0.00000000000000E+00   3.10687665641389E-09  -1.66043708161754E-35
      3.10687665641389E-09   5.91225879507804E-18
      4.91669510709436E-02
      0.00000000000000E+00   5.30778539244196E-10   0.00000000000000E+00   0.00000000000000E+00  -3.23628591908807E-09
     -8.62905247657211E-36  -3.23628591908807E-09   6.26387549634297E-18   0.00000000000000E+00   0.00000000000000E+00
      0.00000000000000E+00   0.00000000000000E+00   0.00000000000000E+00   0.00000000000000E+00   0.00000000000000E+00
      1.46839038490319E-18   0.00000000000000E+00   0.00000000000000E+00   0.00000000000000E+00   0.00000000000000E+00
     -1.48609349541888E-20   2.83097596652373E-35  -1.48609349541887E-20  -1.36753592322744E-17   2.11417889605057E-02
      2.11417884194760E-02   0.00000000000000E+00   0.00000000000000E+00   3.23628591910294E-09  -1.96807071886652E-35
      3.23628591910294E-09   5.94309335102819E-18
      5.48179291208094E-02
      0.00000000000000E+00   5.49646772356196E-10   0.00000000000000E+00   0.00000000000000E+00  -3.35177797452092E-09
      2.31018537482170E-37  -3.35177797452092E-09   6.26113831919869E-18   0.00000000000000E+00   0.00000000000000E+00
      0.00000000000000E+00   0.00000000000000E+00   0.00000000000000E+00   0.00000000000000E+00   0.00000000000000E+00
      1.43657687739860E-18   0.00000000000000E+00   0.00000000000000E+00   0.00000000000000E+00   0.00000000000000E+00
      7.86821277957219E-17   1.90805702463423E-35   7.86821277957219E-17  -1.36745463148116E-17   2.35717095219481E-02
      2.35717089617044E-02   0.00000000000000E+00   0.00000000000000E+00   3.35177789583879E-09  -1.93115887838244E-35
      3.35177789583879E-09   5.97683111821431E-18
      6.09963317886627E-02
      0.00000000000000E+00   5.66273539399801E-10   0.00000000000000E+00   0.00000000000000E+00  -3.45378000394108E-09
      1.17574434187102E-35  -3.45378000394108E-09   6.25814668239480E-18   0.00000000000000E+00   0.00000000000000E+00
      0.00000000000000E+00   0.00000000000000E+00   0.00000000000000E+00   0.00000000000000E+00   0.00000000000000E+00
      1.40180936196228E-18   0.00000000000000E+00   0.00000000000000E+00   0.00000000000000E+00   0.00000000000000E+00
     -6.53811169797583E-19   6.50845086981500E-36  -6.53811169797583E-19  -1.36737034071284E-17   2.62284226691250E-02
      2.62284220919594E-02   0.00000000000000E+00   0.00000000000000E+00   3.45378000459490E-09  -1.82658942885252E-35
      3.45378000459490E-09   6.01374736277125E-18
      6.77513853721824E-02
      0.00000000000000E+00   5.80861403727325E-10   0.00000000000000E+00   0.00000000000000E+00  -3.54356101438753E-09
     -5.98620234045743E-36  -3.54356101438753E-09   6.25487698472848E-18   0.00000000000000E+00   0.00000000000000E+00
      0.00000000000000E+00   0.00000000000000E+00   0.00000000000000E+00   0.00000000000000E+00   0.00000000000000E+00
      1.36381436373980E-18   0.00000000000000E+00   0.00000000000000E+00   0.00000000000000E+00   0.00000000000000E+00
     -4.92037824577086E-19   1.73664497660828E-35  -4.92037824577086E-19  -1.36728350530813E-17   2.91330957100384E-02
      2.91330951180385E-02   0.00000000000000E+00   0.00000000000000E+00   3.54356101487957E-09  -1.13802474256253E-35
      3.54356101487957E-09   6.05414370461303E-18
      7.51369106234972E-02
      0.00000000000000E+00   5.93758926465173E-10   0.00000000000000E+00   0.00000000000000E+00  -3.62328028299669E-09
      1.00651484252856E-35  -3.62328028299669E-09   6.25130343849511E-18   0.00000000000000E+00   0.00000000000000E+00
      0.00000000000000E+00   0.00000000000000E+00   0.00000000000000E+00   0.00000000000000E+00   0.00000000000000E+00
      1.32229311443760E-18   0.00000000000000E+00   0.00000000000000E+00   0.00000000000000E+00   0.00000000000000E+00
      1.24031527290682E-19   4.93119815928258E-36   1.24031527290682E-19  -1.36719472112652E-17   3.23088715681038E-02
      3.23088709630043E-02   0.00000000000000E+00   0.00000000000000E+00   3.62328028287266E-09  -1.49963465845682E-35
      3.62328028287266E-09   6.09835065833252E-18
      8.32117515649347E-02
      0.00000000000000E+00   6.05455464134715E-10   0.00000000000000E+00   0.00000000000000E+00  -3.69595571095592E-09
     -2.08934206645265E-35  -3.69595571095592E-09   6.24739786635117E-18   0.00000000000000E+00   0.00000000000000E+00
      0.00000000000000E+00   0.00000000000000E+00   0.00000000000000E+00   0.00000000000000E+00   0.00000000000000E+00
      1.27691918870939E-18   0.00000000000000E+00   0.00000000000000E+00   0.00000000000000E+00   0.00000000000000E+00
      5.55080150256256E-19   2.78569066024364E-35   5.55080150256256E-19  -1.36710474727908E-17   3.57810531729219E-02
      3.57810525559620E-02   0.00000000000000E+00   0.00000000000000E+00   3.69595571040084E-09  -6.96348593790992E-36
      3.69595571040084E-09   6.14673041773023E-18
      9.20402443275731E-02
      0.00000000000000E+00   6.16554021848900E-10   0.00000000000000E+00   0.00000000000000E+00  -3.76530029010707E-09
     -1.58043662768308E-35  -3.76530029010707E-09   6.24312948027337E-18   0.00000000000000E+00   0.00000000000000E+00
      0.00000000000000E+00   0.00000000000000E+00   0.00000000000000E+00   0.00000000000000E+00   0.00000000000000E+00
      1.22733591732686E-18   0.00000000000000E+00   0.00000000000000E+00   0.00000000000000E+00   0.00000000000000E+00
     -2.12660259417243E-19   2.75141765607274E-35  -2.12660259417243E-19  -1.36701453020438E-17   3.95773050608564E-02
      3.95773044326645E-02   0.00000000000000E+00   0.00000000000000E+00   3.76530029031973E-09  -1.17098102838966E-35
      3.76530029031973E-09   6.19967990444367E-18
      1.01692729748058E-01
      0.00000000000000E+00   6.27707578175226E-10   0.00000000000000E+00   0.00000000000000E+00  -3.83533211860973E-09
     -3.88692342039721E-36  -3.83533211860973E-09   6.23846464183593E-18   0.00000000000000E+00   0.00000000000000E+00
      0.00000000000000E+00   0.00000000000000E+00   0.00000000000000E+00   0.00000000000000E+00   0.00000000000000E+00
      1.17315356354250E-18   0.00000000000000E+00   0.00000000000000E+00   0.00000000000000E+00   0.00000000000000E+00
     -2.36642699835496E-18   1.16705224888302E-35  -2.36642699835496E-18  -1.36692523100118E-17   4.37278737916648E-02
      4.37278731522108E-02   0.00000000000000E+00   0.00000000000000E+00   3.83533212097615E-09  -7.78359906843301E-36
      3.83533212097615E-09   6.25763410463332E-18
      1.11692729748058E-01
      0.00000000000000E+00   6.38908530697911E-10   0.00000000000000E+00   0.00000000000000E+00  -3.90590001042283E-09
     -2.21367461051011E-36  -3.90590001042283E-09   6.23363387000070E-18   0.00000000000000E+00   0.00000000000000E+00
      0.00000000000000E+00   0.00000000000000E+00   0.00000000000000E+00   0.00000000000000E+00   0.00000000000000E+00
      1.11705003643669E-18   0.00000000000000E+00   0.00000000000000E+00   0.00000000000000E+00   0.00000000000000E+00
     -3.23135057825533E-17   9.79910808338543E-36  -3.23135057825533E-17  -1.36684254306206E-17   4.80278737916648E-02
      4.80278731409196E-02   0.00000000000000E+00   0.00000000000000E+00   3.90590004273634E-09  -7.58543347287532E-36
      3.90590004273634E-09   6.31774152418313E-18
      1.21692729748058E-01
      0.00000000000000E+00   6.50141880697052E-10   0.00000000000000E+00   0.00000000000000E+00  -3.97679431307321E-09
      1.44441806105339E-35  -3.97679431307321E-09   6.22880504143913E-18   0.00000000000000E+00   0.00000000000000E+00
      0.00000000000000E+00   0.00000000000000E+00   0.00000000000000E+00   0.00000000000000E+00   0.00000000000000E+00
      1.06097454524490E-18   0.00000000000000E+00   0.00000000000000E+00   0.00000000000000E+00   0.00000000000000E+00
     -2.30426514879410E-17  -3.69149560143041E-36  -2.30426514879410E-17  -1.36676939629330E-17   5.23278737916648E-02
      5.23278731296087E-02   0.00000000000000E+00   0.00000000000000E+00   3.97679433611586E-09  -1.07526850091034E-35
      3.97679433611586E-09   6.37791437624901E-18
      1.31692729748058E-01
      0.00000000000000E+00   6.61587877996978E-10   0.00000000000000E+00   0.00000000000000E+00  -4.04908980171099E-09
     -9.02104882229047E-36  -4.04908980171099E-09   6.22397806294294E-18   0.00000000000000E+00   0.00000000000000E+00
      0.00000000000000E+00   0.00000000000000E+00   0.00000000000000E+00   0.00000000000000E+00   0.00000000000000E+00
      1.00492523825349E-18   0.00000000000000E+00   0.00000000000000E+00   0.00000000000000E+00   0.00000000000000E+00
     -1.63016895075383E-19   1.72049983116877E-35  -1.63016895075383E-19  -1.36670535777817E-17   5.66278737916648E-02
      5.66278731180931E-02   0.00000000000000E+00   0.00000000000000E+00   4.04908980187401E-09  -8.18394948939725E-36
      4.04908980187401E-09   6.43815027658530E-18
      1.41692729748058E-01
      0.00000000000000E+00   6.73312988866102E-10   0.00000000000000E+00   0.00000000000000E+00  -4.12318856539920E-09
     -3.34207456990029E-36  -4.12318856539920E-09   6.21915285459464E-18   0.00000000000000E+00   0.00000000000000E+00
      0.00000000000000E+00   0.00000000000000E+00   0.00000000000000E+00   0.00000000000000E+00   0.00000000000000E+00
      9.48900454409033E-19   0.00000000000000E+00   0.00000000000000E+00   0.00000000000000E+00   0.00000000000000E+00
     -3.97459964146992E-19   7.80717786086497E-36  -3.97459964146992E-19  -1.36665002584203E-17   6.09278737916648E-02
      6.09278731063048E-02   0.00000000000000E+00   0.00000000000000E+00   4.12318856579666E-09  -4.46510329096469E-36
      4.12318856579666E-09   6.49844694941665E-18
      1.51692729748058E-01
      0.00000000000000E+00   6.85314072041933E-10   0.00000000000000E+00   0.00000000000000E+00  -4.19906887797460E-09
     -2.53772903782982E-35  -4.19906887797460E-09   6.21432935053574E-18   0.00000000000000E+00   0.00000000000000E+00
      0.00000000000000E+00   0.00000000000000E+00   0.00000000000000E+00   0.00000000000000E+00   0.00000000000000E+00
      8.92898713759083E-19   0.00000000000000E+00   0.00000000000000E+00   0.00000000000000E+00   0.00000000000000E+00
     -2.04041306133784E-19   2.92364211492377E-35  -2.04041306133784E-19  -1.36660302893583E-17   6.52278737916648E-02
      6.52278730942461E-02   0.00000000000000E+00   0.00000000000000E+00   4.19906887817864E-09  -3.85913077093945E-36
      4.19906887817864E-09   6.55880222506350E-18
      1.61692729748058E-01
      0.00000000000000E+00   6.97551945179752E-10   0.00000000000000E+00   0.00000000000000E+00  -4.27648240601303E-09
     -2.44672859714712E-35  -4.27648240601303E-09   6.20950749706679E-18   0.00000000000000E+00   0.00000000000000E+00
      0.00000000000000E+00   0.00000000000000E+00   0.00000000000000E+00   0.00000000000000E+00   0.00000000000000E+00
      8.36918698313539E-19   0.00000000000000E+00   0.00000000000000E+00   0.00000000000000E+00   0.00000000000000E+00
      1.68126101518889E-19   2.64667142308658E-35   1.68126101518889E-19  -1.36656402309449E-17   6.95278737916648E-02
      6.95278730819536E-02   0.00000000000000E+00   0.00000000000000E+00   4.27648240584491E-09  -1.99942825939459E-36
      4.27648240584491E-09   6.61921403556451E-18
      1.71692729748058E-01
      0.00000000000000E+00   7.09983687897153E-10   0.00000000000000E+00   0.00000000000000E+00  -4.35515856502984E-09
     -9.57541129225582E-36  -4.35515856502984E-09   6.20468724781803E-18   0.00000000000000E+00   0.00000000000000E+00
      0.00000000000000E+00   0.00000000000000E+00   0.00000000000000E+00   0.00000000000000E+00   0.00000000000000E+00
      7.80959226596705E-19   0.00000000000000E+00   0.00000000000000E+00   0.00000000000000E+00   0.00000000000000E+00
     -1.29830799797932E-19   1.21209871437683E-35  -1.29830799797932E-19  -1.36653268817337E-17   7.38278737916648E-02
      7.38278730694676E-02   0.00000000000000E+00   0.00000000000000E+00   4.35515856515967E-09  -2.54557585151252E-36
      4.35515856515967E-09   6.67968040731900E-18
      1.81692729748058E-01
      0.00000000000000E+00   7.22580318651991E-10   0.00000000000000E+00   0.00000000000000E+00  -4.43492005445494E-09
      4.50639948896769E-36  -4.43492005445494E-09   6.19986855974330E-18   0.00000000000000E+00   0.00000000000000E+00
      0.00000000000000E+00   0.00000000000000E+00   0.00000000000000E+00   0.00000000000000E+00   0.00000000000000E+00
      7.25019222350430E-19   0.00000000000000E+00   0.00000000000000E+00   0.00000000000000E+00   0.00000000000000E+00
     -5.36372568142491E-18  -1.56177827592482E-36  -5.36372568142491E-18  -1.36650872331171E-17   7.81278737916648E-02
      7.81278730568174E-02   0.00000000000000E+00   0.00000000000000E+00   4.43492005981867E-09  -2.94462121304287E-36
      4.43492005981867E-09   6.74019945102338E-18
      1.91692729748058E-01
      0.00000000000000E+00   7.35330415494763E-10   0.00000000000000E+00   0.00000000000000E+00  -4.51570266512739E-09