DF-ISE text

Info {
  version   = 1.0
  type      = xyplot
  datasets  = [
    "time"
    "source OuterVoltage" "source InnerVoltage" "source QuasiFermiPotential" "source DisplacementCurrent" "source eCurrent"
    "source hCurrent" "source TotalCurrent" "source Charge" "gate OuterVoltage" "gate InnerVoltage"
    "gate QuasiFermiPotential" "gate DisplacementCurrent" "gate eCurrent" "gate hCurrent" "gate TotalCurrent"
    "gate Charge" "substrate OuterVoltage" "substrate InnerVoltage" "substrate QuasiFermiPotential" "substrate DisplacementCurrent"
    "substrate eCurrent" "substrate hCurrent" "substrate TotalCurrent" "substrate Charge" "drain OuterVoltage"
    "drain InnerVoltage" "drain QuasiFermiPotential" "drain DisplacementCurrent" "drain eCurrent" "drain hCurrent"
    "drain TotalCurrent" "drain Charge" ]
  functions = [
    Time
    OuterVoltage InnerVoltage QuasiFermiPotential DisplacementCurrent eCurrent
    hCurrent TotalCurrent Charge OuterVoltage InnerVoltage
    QuasiFermiPotential DisplacementCurrent eCurrent hCurrent TotalCurrent
    Charge OuterVoltage InnerVoltage QuasiFermiPotential DisplacementCurrent
    eCurrent hCurrent TotalCurrent Charge OuterVoltage
    InnerVoltage QuasiFermiPotential DisplacementCurrent eCurrent hCurrent
    TotalCurrent Charge ]
}

Data {
      0.00000000000000E+00
      0.00000000000000E+00   0.00000000000000E+00   0.00000000000000E+00   0.00000000000000E+00   1.32032574758968E-20
      8.61622640530198E-34   1.32032574758977E-20   7.26958309236813E-18   0.00000000000000E+00   0.00000000000000E+00
      0.00000000000000E+00   0.00000000000000E+00   0.00000000000000E+00   0.00000000000000E+00   0.00000000000000E+00
      4.10285868691343E-18   0.00000000000000E+00   0.00000000000000E+00   0.00000000000000E+00   0.00000000000000E+00
     -1.34339978920478E-20  -1.76379759948393E-33  -1.34339978920495E-20  -1.70182434097235E-17   0.00000000000000E+00
      0.00000000000000E+00   0.00000000000000E+00   0.00000000000000E+00   2.30740416151015E-22   9.02174958953733E-34
      2.30740416151917E-22   5.64580163044198E-18
      0.00000000000000E+00
      0.00000000000000E+00  -4.21306133979481E-19   0.00000000000000E+00   0.00000000000000E+00  -1.11298124925213E-16
      8.54278089145401E-34  -1.11298124925213E-16   7.26388607480705E-18   0.00000000000000E+00   0.00000000000000E+00
      0.00000000000000E+00   0.00000000000000E+00   0.00000000000000E+00   0.00000000000000E+00   0.00000000000000E+00
      4.09275956500577E-18   0.00000000000000E+00   0.00000000000000E+00   0.00000000000000E+00   0.00000000000000E+00
      1.11745834950075E-16  -1.75023851029055E-33   1.11745834950075E-16  -1.69977184302869E-17   0.00000000000000E+00
      0.00000000000000E+00   0.00000000000000E+00   0.00000000000000E+00  -4.47710024861758E-19   8.95960421145146E-34
     -4.47710024861757E-19   5.64107279047418E-18
      1.00000000000000E-03
      0.00000000000000E+00   7.48453717463619E-13   0.00000000000000E+00   0.00000000000000E+00  -4.75992181455140E-12
      8.45282547266957E-34  -4.75992181455140E-12   7.26385094371511E-18   0.00000000000000E+00   0.00000000000000E+00
      0.00000000000000E+00   0.00000000000000E+00   0.00000000000000E+00   0.00000000000000E+00   0.00000000000000E+00
      4.09215726193170E-18   0.00000000000000E+00   0.00000000000000E+00   0.00000000000000E+00   0.00000000000000E+00
      3.73829161042720E-19  -1.73212784933692E-33   3.73829161042719E-19  -1.69977160806600E-17   5.00000000000000E-05
      4.99999992514824E-05   0.00000000000000E+00   0.00000000000000E+00   4.75992144072224E-12   8.86845302069961E-34
      4.75992144072224E-12   5.64170787501316E-18
      2.09333333333333E-03
      0.00000000000000E+00   1.56431473113942E-12   0.00000000000000E+00   0.00000000000000E+00  -9.94855420989260E-12
      8.63917574807138E-34  -9.94855420989260E-12   7.26381253389726E-18   0.00000000000000E+00   0.00000000000000E+00
      0.00000000000000E+00   0.00000000000000E+00   0.00000000000000E+00   0.00000000000000E+00   0.00000000000000E+00
      4.09149875105252E-18   0.00000000000000E+00   0.00000000000000E+00   0.00000000000000E+00   0.00000000000000E+00
      9.19137033791445E-19  -1.72125363915810E-33   9.19137033791443E-19  -1.69977135299570E-17   1.04666666666667E-04
      1.04666665102219E-04   0.00000000000000E+00   0.00000000000000E+00   9.94855329075558E-12   8.57336064350958E-34
      9.94855329075558E-12   5.64240224500719E-18
      3.29600000000000E-03
      0.00000000000000E+00   2.45870762949513E-12   0.00000000000000E+00   0.00000000000000E+00  -1.56366066707755E-11
      8.58815524013733E-34  -1.56366066707755E-11   7.26377028330983E-18   0.00000000000000E+00   0.00000000000000E+00
      0.00000000000000E+00   0.00000000000000E+00   0.00000000000000E+00   0.00000000000000E+00   0.00000000000000E+00
      4.09077439770094E-18   0.00000000000000E+00   0.00000000000000E+00   0.00000000000000E+00   0.00000000000000E+00
     -1.85249927448454E-18  -1.74540702666907E-33  -1.85249927448454E-18  -1.69977107461498E-17   1.64800000000000E-04
      1.64799997541092E-04   0.00000000000000E+00   0.00000000000000E+00   1.56366085232748E-11   8.86591502655338E-34
      1.56366085232748E-11   5.64316606513911E-18
      4.61893333333333E-03
      0.00000000000000E+00   3.43877144497103E-12   0.00000000000000E+00   0.00000000000000E+00  -2.18694809531683E-11
      8.44839138145116E-34  -2.18694809531683E-11   7.26372380792076E-18   0.00000000000000E+00   0.00000000000000E+00
      0.00000000000000E+00   0.00000000000000E+00   0.00000000000000E+00   0.00000000000000E+00   0.00000000000000E+00
      4.08997761942852E-18   0.00000000000000E+00   0.00000000000000E+00   0.00000000000000E+00   0.00000000000000E+00
     -8.38338375004525E-19  -1.69613843230471E-33  -8.38338375004526E-19  -1.69977077105195E-17   2.30946666666667E-04
      2.30946663227617E-04   0.00000000000000E+00   0.00000000000000E+00   2.18694817915066E-11   8.51299294159597E-34
      2.18694817915066E-11   5.64400628317025E-18
      6.07416000000000E-03
      0.00000000000000E+00   4.51221734373735E-12   0.00000000000000E+00   0.00000000000000E+00  -2.86962233118902E-11
      8.56933714359363E-34  -2.86962233118902E-11   7.26367268530401E-18   0.00000000000000E+00   0.00000000000000E+00
      0.00000000000000E+00   0.00000000000000E+00   0.00000000000000E+00   0.00000000000000E+00   0.00000000000000E+00
      4.08910117591619E-18   0.00000000000000E+00   0.00000000000000E+00   0.00000000000000E+00   0.00000000000000E+00
     -1.85404486616800E-19  -1.73467877114521E-33  -1.85404486616802E-19  -1.69977044034319E-17   3.03708000000000E-04
      3.03707995487415E-04   0.00000000000000E+00   0.00000000000000E+00   2.86962234972947E-11   8.77745056785851E-34
      2.86962234972947E-11   5.64493054221166E-18
      7.67490933333333E-03
      0.00000000000000E+00   5.68735179753162E-12   0.00000000000000E+00   0.00000000000000E+00  -3.61696853095426E-11
      8.53607185078107E-34  -3.61696853095426E-11   7.26361645080227E-18   0.00000000000000E+00   0.00000000000000E+00
      0.00000000000000E+00   0.00000000000000E+00   0.00000000000000E+00   0.00000000000000E+00   0.00000000000000E+00
      4.08813710326474E-18   0.00000000000000E+00   0.00000000000000E+00   0.00000000000000E+00   0.00000000000000E+00
     -1.03614156560865E-18  -1.70029894360401E-33  -1.03614156560865E-18  -1.69977008044453E-17   3.83745466666667E-04
      3.83745460978865E-04   0.00000000000000E+00   0.00000000000000E+00   3.61696863456842E-11   8.46691758525909E-34
      3.61696863456842E-11   5.64594725037833E-18
      9.43573360000000E-03
      0.00000000000000E+00   6.97312166341504E-12   0.00000000000000E+00   0.00000000000000E+00  -4.43466640083661E-11
      8.62761315259291E-34  -4.43466640083661E-11   7.26355459330607E-18   0.00000000000000E+00   0.00000000000000E+00
      0.00000000000000E+00   0.00000000000000E+00   0.00000000000000E+00   0.00000000000000E+00   0.00000000000000E+00
      4.08707664173003E-18   0.00000000000000E+00   0.00000000000000E+00   0.00000000000000E+00   0.00000000000000E+00
      6.46373409511144E-19  -1.73997113180657E-33   6.46373409511143E-19  -1.69976968924695E-17   4.71786680000000E-04
      4.71786673026335E-04   0.00000000000000E+00   0.00000000000000E+00   4.43466633619926E-11   8.77209816547277E-34
      4.43466633619926E-11   5.64706565743347E-18
      1.13726402933333E-02
      0.00000000000000E+00   8.37906741879158E-12   0.00000000000000E+00   0.00000000000000E+00  -5.32880005031607E-11
      8.68036891801370E-34  -5.32880005031607E-11   7.26348655061142E-18   0.00000000000000E+00   0.00000000000000E+00
      0.00000000000000E+00   0.00000000000000E+00   0.00000000000000E+00   0.00000000000000E+00   0.00000000000000E+00
      4.08591015625112E-18   0.00000000000000E+00   0.00000000000000E+00   0.00000000000000E+00   0.00000000000000E+00
      3.41927629775482E-19  -1.74466641711548E-33   3.41927629775480E-19  -1.69976926459896E-17   5.68632014666667E-04
      5.68632006286940E-04   0.00000000000000E+00   0.00000000000000E+00   5.32880001612331E-11   8.76629525314113E-34
      5.32880001612331E-11   5.64829593912708E-18
      1.35032376560000E-02
      0.00000000000000E+00   9.91543438622733E-12   0.00000000000000E+00   0.00000000000000E+00  -6.30586694036951E-11
      8.41319155070848E-34  -6.30586694036951E-11   7.26341170431375E-18   0.00000000000000E+00   0.00000000000000E+00
      0.00000000000000E+00   0.00000000000000E+00   0.00000000000000E+00   0.00000000000000E+00   0.00000000000000E+00
      4.08462704905386E-18   0.00000000000000E+00   0.00000000000000E+00   0.00000000000000E+00   0.00000000000000E+00
      2.49136269609018E-18  -1.68496896358951E-33   2.49136269609018E-18  -1.69976880433717E-17   6.75161882800000E-04
      6.75161872883803E-04   0.00000000000000E+00   0.00000000000000E+00   6.30586669123323E-11   8.43649808518657E-34
      6.30586669123323E-11   5.64964929000408E-18
      1.58468947549333E-02
      0.00000000000000E+00   1.15930829952440E-11   0.00000000000000E+00   0.00000000000000E+00  -7.37277751323461E-11
      8.68253927778618E-34  -7.37277751323461E-11   7.26332937419195E-18   0.00000000000000E+00   0.00000000000000E+00
      0.00000000000000E+00   0.00000000000000E+00   0.00000000000000E+00   0.00000000000000E+00   0.00000000000000E+00
      4.08321566354262E-18   0.00000000000000E+00   0.00000000000000E+00   0.00000000000000E+00   0.00000000000000E+00
     -2.83095487313629E-19  -1.75540853099775E-33  -2.83095487313631E-19  -1.69976830632709E-17   7.92344737746667E-04
      7.92344726152702E-04   0.00000000000000E+00   0.00000000000000E+00   7.37277754154416E-11   8.87154603219134E-34
      7.37277754154416E-11   5.65113802553638E-18
      1.84249175637600E-02
      0.00000000000000E+00   1.34235212228913E-11   0.00000000000000E+00   0.00000000000000E+00  -8.53685236974369E-11
      8.48878743469202E-34  -8.53685236974369E-11   7.26323881203154E-18   0.00000000000000E+00   0.00000000000000E+00
      0.00000000000000E+00   0.00000000000000E+00   0.00000000000000E+00   0.00000000000000E+00   0.00000000000000E+00
      4.08166317861420E-18   0.00000000000000E+00   0.00000000000000E+00   0.00000000000000E+00   0.00000000000000E+00
     -1.31709379808643E-18  -1.69948614545528E-33  -1.31709379808643E-18  -1.69976776851659E-17   9.21245878188001E-04
      9.21245864763478E-04   0.00000000000000E+00   0.00000000000000E+00   8.53685250145306E-11   8.50607401986078E-34
      8.53685250145306E-11   5.65277569452011E-18
      2.12607426534693E-02
      0.00000000000000E+00   1.54188881628076E-11   0.00000000000000E+00   0.00000000000000E+00  -9.80580567932645E-11
      8.75150782202130E-34  -9.80580567932645E-11   7.26313919483139E-18   0.00000000000000E+00   0.00000000000000E+00
      0.00000000000000E+00   0.00000000000000E+00   0.00000000000000E+00   0.00000000000000E+00   0.00000000000000E+00
      4.07995549244287E-18   0.00000000000000E+00   0.00000000000000E+00   0.00000000000000E+00   0.00000000000000E+00
     -4.44596906967095E-19  -1.73367031487045E-33  -4.44596906967097E-19  -1.69976718900491E-17   1.06303713267347E-03
      1.06303711725345E-03   0.00000000000000E+00   0.00000000000000E+00   9.80580572378615E-11   8.58519532668318E-34
      9.80580572378615E-11   5.65457720277479E-18
      2.43801502521496E-02
      0.00000000000000E+00   1.75918916719120E-11   0.00000000000000E+00   0.00000000000000E+00  -1.11877195454185E-10
      8.39793662579094E-34  -1.11877195454185E-10   7.26302961733205E-18   0.00000000000000E+00   0.00000000000000E+00
      0.00000000000000E+00   0.00000000000000E+00   0.00000000000000E+00   0.00000000000000E+00   0.00000000000000E+00
      4.07807709469126E-18   0.00000000000000E+00   0.00000000000000E+00   0.00000000000000E+00   0.00000000000000E+00
     -5.93524080476681E-19  -1.66587772827572E-33  -5.93524080476683E-19  -1.69976656613111E-17   1.21900751260748E-03
      1.21900749501433E-03   0.00000000000000E+00   0.00000000000000E+00   1.11877196047709E-10   8.26084065696626E-34
      1.11877196047709E-10   5.65655894928776E-18
      2.78114986106979E-02
      0.00000000000000E+00   1.99557607628115E-11   0.00000000000000E+00   0.00000000000000E+00  -1.26910048417674E-10
      8.28381582626675E-34  -1.26910048417674E-10   7.26290908379835E-18   0.00000000000000E+00   0.00000000000000E+00
      0.00000000000000E+00   0.00000000000000E+00   0.00000000000000E+00   0.00000000000000E+00   0.00000000000000E+00
      4.07601092599924E-18   0.00000000000000E+00   0.00000000000000E+00   0.00000000000000E+00   0.00000000000000E+00
      1.07541562328207E-18  -1.68405625896110E-33   1.07541562328207E-18  -1.69976589858603E-17   1.39057493053490E-03
      1.39057491057775E-03   0.00000000000000E+00   0.00000000000000E+00   1.26910047342258E-10   8.55674676334425E-34
      1.26910047342258E-10   5.65873897606273E-18
      3.15859818051010E-02
      0.00000000000000E+00   2.25241482820840E-11   0.00000000000000E+00   0.00000000000000E+00  -1.43243428271036E-10
      8.74076011906740E-34  -1.43243428271036E-10   7.26277649898213E-18   0.00000000000000E+00   0.00000000000000E+00
      0.00000000000000E+00   0.00000000000000E+00   0.00000000000000E+00   0.00000000000000E+00   0.00000000000000E+00
      4.07373822348957E-18   0.00000000000000E+00   0.00000000000000E+00   0.00000000000000E+00   0.00000000000000E+00
      1.18195937523100E-18  -1.72368128860887E-33   1.18195937523099E-18  -1.69976518555333E-17   1.57929909025505E-03
      1.57929906772937E-03   0.00000000000000E+00   0.00000000000000E+00   1.43243427089076E-10   8.49605276702124E-34
      1.43243427089076E-10   5.66113713306152E-18
      3.57379133189445E-02
      0.00000000000000E+00   2.53110327459485E-11   0.00000000000000E+00   0.00000000000000E+00  -1.60966082440665E-10
      8.50162288266711E-34  -1.60966082440665E-10   7.26263065818315E-18   0.00000000000000E+00   0.00000000000000E+00
      0.00000000000000E+00   0.00000000000000E+00   0.00000000000000E+00   0.00000000000000E+00   0.00000000000000E+00
      4.07123835090519E-18   0.00000000000000E+00   0.00000000000000E+00   0.00000000000000E+00   0.00000000000000E+00
     -9.64442155077531E-19  -1.68520804011422E-33  -9.64442155077532E-19  -1.69976442688578E-17   1.78689566594722E-03
      1.78689564063452E-03   0.00000000000000E+00   0.00000000000000E+00   1.60966083405107E-10   8.35045751847505E-34
      1.60966083405107E-10   5.66377525976947E-18
      4.03050379841723E-02
      0.00000000000000E+00   2.83305038954440E-11   0.00000000000000E+00   0.00000000000000E+00  -1.80167673197460E-10
      8.42382933956961E-34  -1.80167673197460E-10   7.26247023631835E-18   0.00000000000000E+00   0.00000000000000E+00
      0.00000000000000E+00   0.00000000000000E+00   0.00000000000000E+00   0.00000000000000E+00   0.00000000000000E+00
      4.06848861185636E-18   0.00000000000000E+00   0.00000000000000E+00   0.00000000000000E+00   0.00000000000000E+00
     -5.76269457902844E-19  -1.68271593072688E-33  -5.76269457902845E-19  -1.69976362332475E-17   2.01525189920861E-03
      2.01525187087631E-03   0.00000000000000E+00   0.00000000000000E+00   1.80167673773730E-10   8.40332996769919E-34
      1.80167673773730E-10   5.66667738507281E-18
      4.53288751159228E-02
      0.00000000000000E+00   3.15966030214035E-11   0.00000000000000E+00   0.00000000000000E+00  -2.00937458552046E-10
      8.79037169280696E-34  -2.00937458552046E-10   7.26229377590122E-18   0.00000000000000E+00   0.00000000000000E+00
      0.00000000000000E+00   0.00000000000000E+00   0.00000000000000E+00   0.00000000000000E+00   0.00000000000000E+00
      4.06546404450785E-18   0.00000000000000E+00   0.00000000000000E+00   0.00000000000000E+00   0.00000000000000E+00
      2.90139130981984E-18  -1.70009161381147E-33   2.90139130981984E-18  -1.69976277677184E-17   2.26644375579614E-03
      2.26644372419760E-03   0.00000000000000E+00   0.00000000000000E+00   2.00937455650655E-10   8.21054444530777E-34
      2.00937455650655E-10   5.66986994730947E-18
      5.08550959608485E-02
      0.00000000000000E+00   3.51230676529378E-11   0.00000000000000E+00   0.00000000000000E+00  -2.23362645212233E-10
      8.60333548097442E-34  -2.23362645212233E-10   7.26209967382196E-18   0.00000000000000E+00   0.00000000000000E+00
      0.00000000000000E+00   0.00000000000000E+00   0.00000000000000E+00   0.00000000000000E+00   0.00000000000000E+00
      4.06213719587107E-18   0.00000000000000E+00   0.00000000000000E+00   0.00000000000000E+00   0.00000000000000E+00
      1.86089860385428E-19  -1.65080955681387E-33   1.86089860385426E-19  -1.69976189062407E-17   2.54275479804242E-03
      2.54275476291729E-03   0.00000000000000E+00   0.00000000000000E+00   2.23362645026143E-10   7.90476008716425E-34
      2.23362645026143E-10   5.67338203654777E-18
      5.69339388902666E-02
      0.00000000000000E+00   3.89229810307315E-11   0.00000000000000E+00   0.00000000000000E+00  -2.47526400712262E-10
      8.54491765773326E-34  -2.47526400712262E-10   7.26188616681005E-18   0.00000000000000E+00   0.00000000000000E+00
      0.00000000000000E+00   0.00000000000000E+00   0.00000000000000E+00   0.00000000000000E+00   0.00000000000000E+00
      4.05847787368702E-18   0.00000000000000E+00   0.00000000000000E+00   0.00000000000000E+00   0.00000000000000E+00
      3.82857110185674E-18  -1.63887182247715E-33   3.82857110185674E-18  -1.69976097018547E-17   2.84669694451333E-03
      2.84669690558817E-03   0.00000000000000E+00   0.00000000000000E+00   2.47526396883691E-10   7.84380056703826E-34
      2.47526396883691E-10   5.67724566135769E-18
      6.36206661126266E-02
      0.00000000000000E+00   4.30084139968292E-11   0.00000000000000E+00   0.00000000000000E+00  -2.73505368535915E-10
      8.56757086683724E-34  -2.73505368535915E-10   7.26165131544787E-18   0.00000000000000E+00   0.00000000000000E+00
      0.00000000000000E+00   0.00000000000000E+00   0.00000000000000E+00   0.00000000000000E+00   0.00000000000000E+00
      4.05445287368789E-18   0.00000000000000E+00   0.00000000000000E+00   0.00000000000000E+00   0.00000000000000E+00
     -1.44550598920029E-18  -1.64317769003072E-33  -1.44550598920029E-18  -1.69976002317111E-17   3.18103330563133E-03
      3.18103326262064E-03   0.00000000000000E+00   0.00000000000000E+00   2.73505369981421E-10   7.86420603346994E-34
      2.73505369981421E-10   5.68149604257536E-18
      7.09760660572226E-02
      0.00000000000000E+00   4.73899413351939E-11   0.00000000000000E+00   0.00000000000000E+00  -3.01366789677299E-10
      8.73849073635684E-34  -3.01366789677299E-10   7.26139298659024E-18   0.00000000000000E+00   0.00000000000000E+00
      0.00000000000000E+00   0.00000000000000E+00   0.00000000000000E+00   0.00000000000000E+00   0.00000000000000E+00
      4.05002567981026E-18   0.00000000000000E+00   0.00000000000000E+00   0.00000000000000E+00   0.00000000000000E+00
      7.68109477884438E-18  -1.64522305549132E-33   7.68109477884438E-18  -1.69975906032222E-17   3.54880330286113E-03
      3.54880325546884E-03   0.00000000000000E+00   0.00000000000000E+00   3.01366781996204E-10   7.71373981855637E-34
      3.01366781996204E-10   5.68617193682164E-18
      7.90670059962782E-02
      0.00000000000000E+00   5.20761602187954E-11   0.00000000000000E+00   0.00000000000000E+00  -3.31165084838049E-10
      8.46140391096135E-34  -3.31165084838049E-10   7.26110883403346E-18   0.00000000000000E+00   0.00000000000000E+00
      0.00000000000000E+00   0.00000000000000E+00   0.00000000000000E+00   0.00000000000000E+00   0.00000000000000E+00
      4.04515613469593E-18   0.00000000000000E+00   0.00000000000000E+00   0.00000000000000E+00   0.00000000000000E+00
      1.24950518298178E-17  -1.60876019454726E-33   1.24950518298178E-17  -1.69975809615478E-17   3.95335029981391E-03
      3.95335024773535E-03   0.00000000000000E+00   0.00000000000000E+00   3.31165072342997E-10   7.62619803451121E-34
      3.31165072342997E-10   5.69131599281849E-18
      8.79670399292394E-02
      0.00000000000000E+00   5.70729849431427E-11   0.00000000000000E+00   0.00000000000000E+00  -3.62937843700965E-10
      8.68610996786269E-34  -3.62937843700965E-10   7.26079627725857E-18   0.00000000000000E+00   0.00000000000000E+00
      0.00000000000000E+00   0.00000000000000E+00   0.00000000000000E+00   0.00000000000000E+00   0.00000000000000E+00
      4.03980007758004E-18   0.00000000000000E+00   0.00000000000000E+00   0.00000000000000E+00   0.00000000000000E+00
      1.78151753825964E-17  -1.64923348354713E-33   1.78151753825964E-17  -1.69975714987167E-17   4.39835199646197E-03
      4.39835193938657E-03   0.00000000000000E+00   0.00000000000000E+00   3.62937825885789E-10   7.80622486760862E-34
      3.62937825885789E-10   5.69697514387805E-18
      9.77570772554967E-02
      0.00000000000000E+00   6.23830478289607E-11   0.00000000000000E+00   0.00000000000000E+00  -3.96701572424370E-10
      8.46672262472908E-34  -3.96701572424370E-10   7.26045247805564E-18   0.00000000000000E+00   0.00000000000000E+00
      0.00000000000000E+00   0.00000000000000E+00   0.00000000000000E+00   0.00000000000000E+00   0.00000000000000E+00
      4.03390894623639E-18   0.00000000000000E+00   0.00000000000000E+00   0.00000000000000E+00   0.00000000000000E+00
      2.52732518398829E-17  -1.59677654361346E-33   2.52732518398829E-17  -1.69975624645357E-17   4.88785386277484E-03
      4.88785380038942E-03   0.00000000000000E+00   0.00000000000000E+00   3.96701547151118E-10   7.50104281140550E-34
      3.96701547151118E-10   5.70320104024365E-18
      1.07757077255497E-01
      0.00000000000000E+00   6.76108245711390E-11   0.00000000000000E+00   0.00000000000000E+00  -4.29941387936781E-10
      8.72684465834902E-34  -4.29941387936781E-10   7.26010131974862E-18   0.00000000000000E+00   0.00000000000000E+00
      0.00000000000000E+00   0.00000000000000E+00   0.00000000000000E+00   0.00000000000000E+00   0.00000000000000E+00
      4.02789204070395E-18   0.00000000000000E+00   0.00000000000000E+00   0.00000000000000E+00   0.00000000000000E+00
      3.05419005763887E-17  -1.62301734436043E-33   3.05419005763887E-17  -1.69975547144148E-17   5.38785386277483E-03
      5.38785379516172E-03   0.00000000000000E+00   0.00000000000000E+00   4.29941357394880E-10   7.50332878525527E-34
      4.29941357394880E-10   5.70956135396228E-18
      1.17757077255497E-01
      0.00000000000000E+00   7.26461482500093E-11   0.00000000000000E+00   0.00000000000000E+00  -4.61956825424226E-10
      8.72907526079152E-34  -4.61956825424226E-10   7.25975017567046E-18   0.00000000000000E+00   0.00000000000000E+00
      0.00000000000000E+00   0.00000000000000E+00   0.00000000000000E+00   0.00000000000000E+00   0.00000000000000E+00
      4.02187570683996E-18   0.00000000000000E+00   0.00000000000000E+00   0.00000000000000E+00   0.00000000000000E+00
      3.04102651152969E-17  -1.58632454248804E-33   3.04102651152969E-17  -1.69975484480609E-17   5.88785386277483E-03
      5.88785379012652E-03   0.00000000000000E+00   0.00000000000000E+00   4.61956795013962E-10   7.13417016408885E-34
      4.61956795013962E-10   5.71592256555043E-18
      1.27757077255497E-01
      0.00000000000000E+00   7.74948345754451E-11   0.00000000000000E+00   0.00000000000000E+00  -4.92784855201578E-10
      8.45728572858209E-34  -4.92784855201578E-10   7.25939904569007E-18   0.00000000000000E+00   0.00000000000000E+00
      0.00000000000000E+00   0.00000000000000E+00   0.00000000000000E+00   0.00000000000000E+00   0.00000000000000E+00
      4.01585993991198E-18   0.00000000000000E+00   0.00000000000000E+00   0.00000000000000E+00   0.00000000000000E+00
      2.98906843231165E-17  -1.53797474519760E-33   2.98906843231165E-17  -1.69975436557344E-17   6.38785386277483E-03
      6.38785378527800E-03   0.00000000000000E+00   0.00000000000000E+00   4.92784825310894E-10   6.92246172339386E-34
      4.92784825310894E-10   5.72228467013227E-18
      1.37757077255497E-01
      0.00000000000000E+00   8.21625939307863E-11   0.00000000000000E+00   0.00000000000000E+00  -5.22461973246550E-10
      8.58744689199751E-34  -5.22461973246550E-10   7.25904792967720E-18   0.00000000000000E+00   0.00000000000000E+00
      0.00000000000000E+00   0.00000000000000E+00   0.00000000000000E+00   0.00000000000000E+00   0.00000000000000E+00
      4.00984473527066E-18   0.00000000000000E+00   0.00000000000000E+00   0.00000000000000E+00   0.00000000000000E+00
      3.00602046666281E-17  -1.55914821896222E-33   3.00602046666281E-17  -1.69975403278246E-17   6.88785386277483E-03
      6.88785378061042E-03   0.00000000000000E+00   0.00000000000000E+00   5.22461943186346E-10   7.00403529762471E-34
      5.22461943186346E-10   5.72864766287683E-18
      1.47757077255497E-01
      0.00000000000000E+00   8.66550827721878E-11   0.00000000000000E+00   0.00000000000000E+00  -5.51024188415618E-10
      8.62531814821871E-34  -5.51024188415618E-10   7.25869682750130E-18   0.00000000000000E+00   0.00000000000000E+00
      0.00000000000000E+00   0.00000000000000E+00   0.00000000000000E+00   0.00000000000000E+00   0.00000000000000E+00
      4.00383008830560E-18   0.00000000000000E+00   0.00000000000000E+00   0.00000000000000E+00   0.00000000000000E+00
      2.90652238438650E-17  -1.56802765893525E-33   2.90652238438650E-17  -1.69975384547901E-17   7.38785386277483E-03
      7.38785377611816E-03   0.00000000000000E+00   0.00000000000000E+00   5.51024159350394E-10   7.05495844113380E-34
      5.51024159350394E-10   5.73501153898314E-18
      1.57757077255497E-01
      0.00000000000000E+00   9.09778787715573E-11   0.00000000000000E+00   0.00000000000000E+00  -5.78507015806301E-10
      8.39770991921370E-34  -5.78507015806301E-10   7.25834573903204E-18   0.00000000000000E+00   0.00000000000000E+00
      0.00000000000000E+00   0.00000000000000E+00   0.00000000000000E+00   0.00000000000000E+00   0.00000000000000E+00
      3.99781599440656E-18   0.00000000000000E+00   0.00000000000000E+00   0.00000000000000E+00   0.00000000000000E+00
      2.56589966699934E-17  -1.50905274733873E-33   2.56589966699934E-17  -1.69975380271044E-17   7.88785386277484E-03
      7.88785377179560E-03   0.00000000000000E+00   0.00000000000000E+00   5.78506990147305E-10   6.69281755417365E-34
      5.78506990147305E-10   5.74137629366583E-18
      1.67757077255497E-01
      0.00000000000000E+00   9.51363847587569E-11   0.00000000000000E+00   0.00000000000000E+00  -6.04945217859969E-10
      8.36423263952726E-34  -6.04945217859969E-10   7.25799466413951E-18   0.00000000000000E+00   0.00000000000000E+00
      0.00000000000000E+00   0.00000000000000E+00   0.00000000000000E+00   0.00000000000000E+00   0.00000000000000E+00
      3.99180244903444E-18   0.00000000000000E+00   0.00000000000000E+00   0.00000000000000E+00   0.00000000000000E+00
     -4.57312422291926E-18  -1.51296574235327E-33  -4.57312422291927E-18  -1.69975390353532E-17   8.38785386277484E-03
      8.38785376763727E-03   0.00000000000000E+00   0.00000000000000E+00   6.04945222433093E-10   6.76542478400540E-34
      6.04945222433093E-10   5.74774192217924E-18
      1.77757077255497E-01
      0.00000000000000E+00   9.91360608612831E-11   0.00000000000000E+00   0.00000000000000E+00  -6.30372900923873E-10
      8.42152478649005E-34  -6.30372900923873E-10   7.25764360269464E-18   0.00000000000000E+00   0.00000000000000E+00
      0.00000000000000E+00   0.00000000000000E+00   0.00000000000000E+00   0.00000000000000E+00   0.00000000000000E+00
      3.98578944768293E-18   0.00000000000000E+00   0.00000000000000E+00   0.00000000000000E+00   0.00000000000000E+00
      6.94438889000576E-19  -1.49216756371836E-33   6.94438889000575E-19  -1.69975414701793E-17   8.88785386277484E-03
      8.88785376363790E-03   0.00000000000000E+00   0.00000000000000E+00   6.30372900229435E-10   6.50015085069356E-34
      6.30372900229435E-10   5.75410841980177E-18
      1.87757077255497E-01
      0.00000000000000E+00   1.02982108103360E-10   0.00000000000000E+00   0.00000000000000E+00  -6.54823559949008E-10
      8.71946368400865E-34  -6.54823559949008E-10   7.25729255456743E-18   0.00000000000000E+00   0.00000000000000E+00
      0.00000000000000E+00   0.00000000000000E+00   0.00000000000000E+00   0.00000000000000E+00   0.00000000000000E+00
      3.97977698584414E-18   0.00000000000000E+00   0.00000000000000E+00   0.00000000000000E+00   0.00000000000000E+00
     -7.10586433808025E-19  -1.51630468248045E-33  -7.10586433808026E-19  -1.69975453222465E-17   9.38785386277484E-03
      9.38785375979215E-03   0.00000000000000E+00   0.00000000000000E+00   6.54823560659595E-10   6.44358314079583E-34
      6.54823560659595E-10   5.76047578183491E-18
      1.97757077255497E-01
      0.00000000000000E+00   1.06679660521536E-10   0.00000000000000E+00   0.00000000000000E+00  -6.78329831862182E-10