DF-ISE text

Info {
  version   = 1.0
  type      = xyplot
  datasets  = [
    "time"
    "source OuterVoltage" "source InnerVoltage" "source QuasiFermiPotential" "source DisplacementCurrent" "source eCurrent"
    "source hCurrent" "source TotalCurrent" "source Charge" "gate OuterVoltage" "gate InnerVoltage"
    "gate QuasiFermiPotential" "gate DisplacementCurrent" "gate eCurrent" "gate hCurrent" "gate TotalCurrent"
    "gate Charge" "substrate OuterVoltage" "substrate InnerVoltage" "substrate QuasiFermiPotential" "substrate DisplacementCurrent"
    "substrate eCurrent" "substrate hCurrent" "substrate TotalCurrent" "substrate Charge" "drain OuterVoltage"
    "drain InnerVoltage" "drain QuasiFermiPotential" "drain DisplacementCurrent" "drain eCurrent" "drain hCurrent"
    "drain TotalCurrent" "drain Charge" ]
  functions = [
    Time
    OuterVoltage InnerVoltage QuasiFermiPotential DisplacementCurrent eCurrent
    hCurrent TotalCurrent Charge OuterVoltage InnerVoltage
    QuasiFermiPotential DisplacementCurrent eCurrent hCurrent TotalCurrent
    Charge OuterVoltage InnerVoltage QuasiFermiPotential DisplacementCurrent
    eCurrent hCurrent TotalCurrent Charge OuterVoltage
    InnerVoltage QuasiFermiPotential DisplacementCurrent eCurrent hCurrent
    TotalCurrent Charge ]
}

Data {
      0.00000000000000E+00
      0.00000000000000E+00   0.00000000000000E+00   0.00000000000000E+00   0.00000000000000E+00  -9.53139936142892E-20
      7.94922434432869E-34  -9.53139936142884E-20   6.59109490742390E-18   0.00000000000000E+00   0.00000000000000E+00
      0.00000000000000E+00   0.00000000000000E+00   0.00000000000000E+00   0.00000000000000E+00   0.00000000000000E+00
      3.95251406590903E-18   0.00000000000000E+00   0.00000000000000E+00   0.00000000000000E+00   0.00000000000000E+00
      9.64586981431201E-20  -1.40210991655309E-33   9.64586981431187E-20  -1.61770748867180E-17   0.00000000000000E+00
      0.00000000000000E+00   0.00000000000000E+00   0.00000000000000E+00  -1.14470452883093E-21   6.07187482120225E-34
     -1.14470452883032E-21   5.63346591338514E-18
      0.00000000000000E+00
      0.00000000000000E+00   1.66990431286412E-18   0.00000000000000E+00   0.00000000000000E+00  -3.59049980844468E-16
      8.19687145932741E-34  -3.59049980844468E-16   6.58499808498636E-18   0.00000000000000E+00   0.00000000000000E+00
      0.00000000000000E+00   0.00000000000000E+00   0.00000000000000E+00   0.00000000000000E+00   0.00000000000000E+00
      3.94267344862820E-18   0.00000000000000E+00   0.00000000000000E+00   0.00000000000000E+00   0.00000000000000E+00
      3.59447355555128E-16  -1.44706916616121E-33   3.59447355555128E-16  -1.61562854960691E-17   0.00000000000000E+00
     -4.17476078216031E-19   0.00000000000000E+00   0.00000000000000E+00  -3.97374710660387E-19   6.27382020228473E-34
     -3.97374710660386E-19   5.62861396245468E-18
      1.00000000000000E-03
      0.00000000000000E+00   1.10803653493245E-11   0.00000000000000E+00   0.00000000000000E+00  -6.78120239495625E-11
      8.04843145525897E-34  -6.78120239495625E-11   6.58430580591591E-18   0.00000000000000E+00   0.00000000000000E+00
      0.00000000000000E+00   0.00000000000000E+00   0.00000000000000E+00   0.00000000000000E+00   0.00000000000000E+00
      3.93284277879018E-18   0.00000000000000E+00   0.00000000000000E+00   0.00000000000000E+00   0.00000000000000E+00
      1.69184034732063E-18  -1.42178821875342E-33   1.69184034732063E-18  -1.61563001115613E-17   8.60000000000000E-04
      8.59999988811055E-04   0.00000000000000E+00   0.00000000000000E+00   6.78120222577222E-11   6.16945073227520E-34
      6.78120222577222E-11   5.63915152685524E-18
      2.08666666666667E-03
      0.00000000000000E+00   2.24182570796378E-11   0.00000000000000E+00   0.00000000000000E+00  -1.37197108737653E-10
      8.82626916197754E-34  -1.37197108737653E-10   6.58355358015409E-18   0.00000000000000E+00   0.00000000000000E+00
      0.00000000000000E+00   0.00000000000000E+00   0.00000000000000E+00   0.00000000000000E+00   0.00000000000000E+00
      3.92216181295738E-18   0.00000000000000E+00   0.00000000000000E+00   0.00000000000000E+00   0.00000000000000E+00
      8.53619620312166E-20  -1.51371897720139E-33   8.53619620312151E-20  -1.61563204310524E-17   1.79453333333333E-03
      1.79453331069549E-03   0.00000000000000E+00   0.00000000000000E+00   1.37197108652292E-10   6.31092061003639E-34
      1.37197108652292E-10   5.65060503794095E-18
      3.27475555555556E-03
      0.00000000000000E+00   3.39897396174714E-11   0.00000000000000E+00   0.00000000000000E+00  -2.08007534189155E-10
      7.85408541494256E-34  -2.08007534189155E-10   6.58273120648828E-18   0.00000000000000E+00   0.00000000000000E+00
      0.00000000000000E+00   0.00000000000000E+00   0.00000000000000E+00   0.00000000000000E+00   0.00000000000000E+00
      3.91048594749792E-18   0.00000000000000E+00   0.00000000000000E+00   0.00000000000000E+00   0.00000000000000E+00
      4.85735084208985E-21  -1.31231708261337E-33   4.85735084208854E-21  -1.61563478716729E-17   2.81628977777778E-03
      2.81628974345524E-03   0.00000000000000E+00   0.00000000000000E+00   2.08007534184297E-10   5.26908541119116E-34
      2.08007534184297E-10   5.66313071768669E-18
      4.57373274074074E-03
      0.00000000000000E+00   4.56971803372693E-11   0.00000000000000E+00   0.00000000000000E+00  -2.79645020937316E-10
      8.21768418440134E-34  -2.79645020937316E-10   6.58183214830736E-18   0.00000000000000E+00   0.00000000000000E+00
      0.00000000000000E+00   0.00000000000000E+00   0.00000000000000E+00   0.00000000000000E+00   0.00000000000000E+00
      3.89772267536751E-18   0.00000000000000E+00   0.00000000000000E+00   0.00000000000000E+00   0.00000000000000E+00
     -2.06933925208380E-19  -1.35147505803925E-33  -2.06933925208381E-19  -1.61563840365484E-17   3.93341015703704E-03
      3.93341011089263E-03   0.00000000000000E+00   0.00000000000000E+00   2.79645021144250E-10   5.29706639599122E-34
      2.79645021144250E-10   5.67682921287354E-18
      5.99394779654321E-03
      0.00000000000000E+00   5.74331350906855E-11   0.00000000000000E+00   0.00000000000000E+00  -3.51451819264194E-10
      8.07196380192062E-34  -3.51451819264194E-10   6.58084926053468E-18   0.00000000000000E+00   0.00000000000000E+00
      0.00000000000000E+00   0.00000000000000E+00   0.00000000000000E+00   0.00000000000000E+00   0.00000000000000E+00
      3.88377091307696E-18   0.00000000000000E+00   0.00000000000000E+00   0.00000000000000E+00   0.00000000000000E+00
      3.99623148890337E-19  -1.35450694384685E-33   3.99623148890336E-19  -1.61564308382933E-17   5.15479510502716E-03
      5.15479504703216E-03   0.00000000000000E+00   0.00000000000000E+00   3.51451818864571E-10   5.47310563654794E-34
      3.51451818864571E-10   5.69181066468169E-18
      7.54671625755391E-03
      0.00000000000000E+00   6.90802212938558E-11   0.00000000000000E+00   0.00000000000000E+00  -4.22709435505912E-10
      7.81882071854918E-34  -4.22709435505912E-10   6.57977473306087E-18   0.00000000000000E+00   0.00000000000000E+00
      0.00000000000000E+00   0.00000000000000E+00   0.00000000000000E+00   0.00000000000000E+00   0.00000000000000E+00
      3.86852020854371E-18   0.00000000000000E+00   0.00000000000000E+00   0.00000000000000E+00   0.00000000000000E+00
     -1.85691829472401E-19  -1.23791603410659E-33  -1.85691829472402E-19  -1.61564905526446E-17   6.49017598149636E-03
      6.49017591174059E-03   0.00000000000000E+00   0.00000000000000E+00   4.22709435691604E-10   4.56033962251668E-34
      4.22709435691604E-10   5.70819561104001E-18
      9.24440977492561E-03
      0.00000000000000E+00   8.05126141616623E-11   0.00000000000000E+00   0.00000000000000E+00  -4.92648410341319E-10
      8.23978503661295E-34  -4.92648410341319E-10   6.57860002889520E-18   0.00000000000000E+00   0.00000000000000E+00
      0.00000000000000E+00   0.00000000000000E+00   0.00000000000000E+00   0.00000000000000E+00   0.00000000000000E+00
      3.85184987554766E-18   0.00000000000000E+00   0.00000000000000E+00   0.00000000000000E+00   0.00000000000000E+00
      9.90239310426998E-19  -1.27746409979484E-33   9.90239310426996E-19  -1.61565658797477E-17   7.95019240643603E-03
      7.95019232513631E-03   0.00000000000000E+00   0.00000000000000E+00   4.92648409351080E-10   4.53485596133547E-34
      4.92648409351080E-10   5.72611597530482E-18
      1.11005546872520E-02
      0.00000000000000E+00   9.15988634188332E-11   0.00000000000000E+00   0.00000000000000E+00  -5.60465414762298E-10
      8.43657800394040E-34  -5.60465414762298E-10   6.57731581655212E-18   0.00000000000000E+00   0.00000000000000E+00
      0.00000000000000E+00   0.00000000000000E+00   0.00000000000000E+00   0.00000000000000E+00   0.00000000000000E+00
      3.83362804837235E-18   0.00000000000000E+00   0.00000000000000E+00   0.00000000000000E+00   0.00000000000000E+00
      7.36869635206311E-19  -1.28692668989740E-33   7.36869635206309E-19  -1.61566600146651E-17   9.54647703103672E-03
      9.54647693854263E-03   0.00000000000000E+00   0.00000000000000E+00   5.60465414025429E-10   4.43268889503360E-34
      5.60465414025429E-10   5.74571614974064E-18
      1.31299397913955E-02
      0.00000000000000E+00   1.02205847633356E-10   0.00000000000000E+00   0.00000000000000E+00  -6.25347355634033E-10
      7.92237901101058E-34  -6.25347355634033E-10   6.57591189612632E-18   0.00000000000000E+00   0.00000000000000E+00
      0.00000000000000E+00   0.00000000000000E+00   0.00000000000000E+00   0.00000000000000E+00   0.00000000000000E+00
      3.81371064889243E-18   0.00000000000000E+00   0.00000000000000E+00   0.00000000000000E+00   0.00000000000000E+00
     -3.24466004296638E-19  -1.19302288795327E-33  -3.24466004296639E-19  -1.61567767275365E-17   1.12917482206002E-02
      1.12917481173957E-02   0.00000000000000E+00   0.00000000000000E+00   6.25347355958498E-10   4.00784986852211E-34
      6.25347355958498E-10   5.76715418251770E-18
      1.53487341719258E-02
      0.00000000000000E+00   1.12203759298326E-10   0.00000000000000E+00   0.00000000000000E+00  -6.86502442231459E-10
      7.63904172689245E-34  -6.86502442231459E-10   6.57437711846310E-18   0.00000000000000E+00   0.00000000000000E+00
      0.00000000000000E+00   0.00000000000000E+00   0.00000000000000E+00   0.00000000000000E+00   0.00000000000000E+00
      3.79194025810517E-18   0.00000000000000E+00   0.00000000000000E+00   0.00000000000000E+00   0.00000000000000E+00
     -5.16961087960293E-19  -1.18085305580122E-33  -5.16961087960294E-19  -1.61569204550297E-17   1.31999113878562E-02
      1.31999112745564E-02   0.00000000000000E+00   0.00000000000000E+00   6.86502442748420E-10   4.16948883111970E-34
      6.86502442748420E-10   5.79060307846142E-18
      1.77746160279722E-02
      0.00000000000000E+00   1.21472493885849E-10   0.00000000000000E+00   0.00000000000000E+00  -7.43199007304080E-10
      7.90162000081069E-34  -7.43199007304080E-10   6.57269929675283E-18   0.00000000000000E+00   0.00000000000000E+00
      0.00000000000000E+00   0.00000000000000E+00   0.00000000000000E+00   0.00000000000000E+00   0.00000000000000E+00
      3.76814488209113E-18   0.00000000000000E+00   0.00000000000000E+00   0.00000000000000E+00   0.00000000000000E+00
     -8.15457571766914E-19  -1.14990494193415E-33  -8.15457571766915E-19  -1.61570964025489E-17   1.52861697840561E-02
      1.52861696613973E-02   0.00000000000000E+00   0.00000000000000E+00   7.43199008119538E-10   3.59742941853082E-34
      7.43199008119538E-10   5.81625222370495E-18
      2.04269135239163E-02
      0.00000000000000E+00   1.29909041678482E-10   0.00000000000000E+00   0.00000000000000E+00  -7.94810674154601E-10
      8.43375237949420E-34  -7.94810674154601E-10   6.57086510981518E-18   0.00000000000000E+00   0.00000000000000E+00
      0.00000000000000E+00   0.00000000000000E+00   0.00000000000000E+00   0.00000000000000E+00   0.00000000000000E+00
      3.74213660213798E-18   0.00000000000000E+00   0.00000000000000E+00   0.00000000000000E+00   0.00000000000000E+00
      9.14345397308694E-19  -1.18615129993116E-33   9.14345397308693E-19  -1.61573106575879E-17   1.75671456305680E-02
      1.75671454993906E-02   0.00000000000000E+00   0.00000000000000E+00   7.94810673240255E-10   3.42776061981736E-34
      7.94810673240255E-10   5.84430894563484E-18
      2.33267587861485E-02
      0.00000000000000E+00   1.37435160979551E-10   0.00000000000000E+00   0.00000000000000E+00  -8.40863761310414E-10
      8.28424464246946E-34  -8.40863761310414E-10   6.56885999634149E-18   0.00000000000000E+00   0.00000000000000E+00
      0.00000000000000E+00   0.00000000000000E+00   0.00000000000000E+00   0.00000000000000E+00   0.00000000000000E+00
      3.71371010010956E-18   0.00000000000000E+00   0.00000000000000E+00   0.00000000000000E+00   0.00000000000000E+00
     -4.10527911629521E-19  -1.12815704406477E-33  -4.10527911629522E-19  -1.61575703181672E-17   2.00610125560877E-02
      2.00610124173112E-02   0.00000000000000E+00   0.00000000000000E+00   8.40863761720942E-10   2.99732579817827E-34
      8.40863761720942E-10   5.87500022171614E-18
      2.64972562728556E-02
      0.00000000000000E+00   1.44005860392105E-10   0.00000000000000E+00   0.00000000000000E+00  -8.81088694568381E-10
      8.13138703400869E-34  -8.81088694568381E-10   6.56666803916141E-18   0.00000000000000E+00   0.00000000000000E+00
      0.00000000000000E+00   0.00000000000000E+00   0.00000000000000E+00   0.00000000000000E+00   0.00000000000000E+00
      3.68264104398719E-18   0.00000000000000E+00   0.00000000000000E+00   0.00000000000000E+00   0.00000000000000E+00
      6.10401184875805E-19  -1.08590695333659E-33   6.10401184875804E-19  -1.61578836331010E-17   2.27876403946559E-02
      2.27876402492452E-02   0.00000000000000E+00   0.00000000000000E+00   8.81088693957980E-10   2.72768249935725E-34
      8.81088693957980E-10   5.90857454995224E-18
      2.99636668583222E-02
      0.00000000000000E+00   1.49617401417865E-10   0.00000000000000E+00   0.00000000000000E+00  -9.15468935896992E-10
      8.07982417689092E-34  -9.15468935896992E-10   6.56427183859691E-18   0.00000000000000E+00   0.00000000000000E+00
      0.00000000000000E+00   0.00000000000000E+00   0.00000000000000E+00   0.00000000000000E+00   0.00000000000000E+00
      3.64868432063148E-18   0.00000000000000E+00   0.00000000000000E+00   0.00000000000000E+00   0.00000000000000E+00
     -1.85380848243879E-18  -1.06273473181506E-33  -1.85380848243879E-18  -1.61582601546605E-17   2.57687534981571E-02
      2.57687533470813E-02   0.00000000000000E+00   0.00000000000000E+00   9.15468937750801E-10   2.54752314125964E-34
      9.15468937750801E-10   5.94530399543214E-18
      3.37536090984323E-02
      0.00000000000000E+00   1.54313940501622E-10   0.00000000000000E+00   0.00000000000000E+00  -9.44281605118212E-10
      8.08556830621912E-34  -9.44281605118212E-10   6.56165237385897E-18   0.00000000000000E+00   0.00000000000000E+00
      0.00000000000000E+00   0.00000000000000E+00   0.00000000000000E+00   0.00000000000000E+00   0.00000000000000E+00
      3.61157210027360E-18   0.00000000000000E+00   0.00000000000000E+00   0.00000000000000E+00   0.00000000000000E+00
     -2.72619279584348E-18  -1.02234910814368E-33  -2.72619279584348E-18  -1.61587109028427E-17   2.90281038246517E-02
      2.90281036688356E-02   0.00000000000000E+00   0.00000000000000E+00   9.44281607844406E-10   2.13792277521768E-34
      9.44281607844406E-10   5.98548642871016E-18
      3.78972792809526E-02
      0.00000000000000E+00   1.58191348519884E-10   0.00000000000000E+00   0.00000000000000E+00  -9.68120251384790E-10
      7.74411192200833E-34  -9.68120251384790E-10   6.55878885138944E-18   0.00000000000000E+00   0.00000000000000E+00
      0.00000000000000E+00   0.00000000000000E+00   0.00000000000000E+00   0.00000000000000E+00   0.00000000000000E+00
      3.57101171599625E-18   0.00000000000000E+00   0.00000000000000E+00   0.00000000000000E+00   0.00000000000000E+00
     -2.41365084686886E-18  -9.78360519844497E-34  -2.41365084686886E-18  -1.61592485405824E-17   3.25916601816192E-02
      3.25916600218908E-02   0.00000000000000E+00   0.00000000000000E+00   9.68120253798441E-10   2.03949327643664E-34
      9.68120253798441E-10   6.02944797319669E-18
      4.24276920138415E-02
      0.00000000000000E+00   1.61395525847417E-10   0.00000000000000E+00   0.00000000000000E+00  -9.87884035135493E-10
      8.10636239430523E-34  -9.87884035135493E-10   6.55565853900312E-18   0.00000000000000E+00   0.00000000000000E+00
      0.00000000000000E+00   0.00000000000000E+00   0.00000000000000E+00   0.00000000000000E+00   0.00000000000000E+00
      3.52668334106366E-18   0.00000000000000E+00   0.00000000000000E+00   0.00000000000000E+00   0.00000000000000E+00
     -3.77348179320694E-18  -9.80179972981630E-34  -3.77348179320694E-18  -1.61598875598525E-17   3.64878151319037E-02
      3.64878149689444E-02   0.00000000000000E+00   0.00000000000000E+00   9.87884038908975E-10   1.69543733551105E-34
      9.87884038908975E-10   6.07754567978573E-18
      4.73809432684667E-02
      0.00000000000000E+00   1.64112962388169E-10   0.00000000000000E+00   0.00000000000000E+00  -1.00471904460103E-09
      7.93435498462046E-34  -1.00471904460103E-09   6.55223658448998E-18   0.00000000000000E+00   0.00000000000000E+00
      0.00000000000000E+00   0.00000000000000E+00   0.00000000000000E+00   0.00000000000000E+00   0.00000000000000E+00
      3.47823744154100E-18   0.00000000000000E+00   0.00000000000000E+00   0.00000000000000E+00   0.00000000000000E+00
     -4.68423040047239E-18  -9.47550091951625E-34  -4.68423040047239E-18  -1.61606444727642E-17   4.07476112108814E-02
      4.07476110451851E-02   0.00000000000000E+00   0.00000000000000E+00   1.00471904928527E-09   1.54114593489579E-34
      1.00471904928527E-09   6.13017044673317E-18
      5.27964979735236E-02
      0.00000000000000E+00   1.66552665035843E-10   0.00000000000000E+00   0.00000000000000E+00  -1.01990701739314E-09
      7.88764027835190E-34  -1.01990701739314E-09   6.54849581739901E-18   0.00000000000000E+00   0.00000000000000E+00
      0.00000000000000E+00   0.00000000000000E+00   0.00000000000000E+00   0.00000000000000E+00   0.00000000000000E+00
      3.42529198868468E-18   0.00000000000000E+00   0.00000000000000E+00   0.00000000000000E+00   0.00000000000000E+00
     -8.22388324832749E-18  -9.12224752485838E-34  -8.22388324832749E-18  -1.61615380129813E-17   4.54049882572303E-02
      4.54049880890808E-02   0.00000000000000E+00   0.00000000000000E+00   1.01990702561702E-09   1.23460724650649E-34
      1.01990702561702E-09   6.18775020689760E-18
      5.87175044510525E-02
      0.00000000000000E+00   1.68923362645072E-10   0.00000000000000E+00   0.00000000000000E+00  -1.03472736173240E-09
      8.15071654591663E-34  -1.03472736173240E-09   6.54440653265641E-18   0.00000000000000E+00   0.00000000000000E+00
      0.00000000000000E+00   0.00000000000000E+00   0.00000000000000E+00   0.00000000000000E+00   0.00000000000000E+00
      3.36742941032136E-18   0.00000000000000E+00   0.00000000000000E+00   0.00000000000000E+00   0.00000000000000E+00
     -7.15809937010186E-18  -9.21453388318722E-34  -7.15809937010186E-18  -1.61625893476684E-17   5.04970538279052E-02
      5.04970536573765E-02   0.00000000000000E+00   0.00000000000000E+00   1.03472736889050E-09   1.06381733727059E-34
      1.03472736889050E-09   6.25075340469065E-18
      6.51911381998174E-02
      0.00000000000000E+00   1.71407708514645E-10   0.00000000000000E+00   0.00000000000000E+00  -1.05029998557146E-09
      8.34437396683310E-34  -1.05029998557146E-09   6.53993625483558E-18   0.00000000000000E+00   0.00000000000000E+00
      0.00000000000000E+00   0.00000000000000E+00   0.00000000000000E+00   0.00000000000000E+00   0.00000000000000E+00
      3.30419326715468E-18   0.00000000000000E+00   0.00000000000000E+00   0.00000000000000E+00   0.00000000000000E+00
     -8.06022656655309E-19  -9.23286927805025E-34  -8.06022656655310E-19  -1.61638223087622E-17   5.60643788518430E-02
      5.60643786788257E-02   0.00000000000000E+00   0.00000000000000E+00   1.05029998637748E-09   8.88495311217165E-35
      1.05029998637748E-09   6.31969278677195E-18
      7.22258202068086E-02
      0.00000000000000E+00   1.74117173767160E-10   0.00000000000000E+00   0.00000000000000E+00  -1.06730480392550E-09
      7.95383075623486E-34  -1.06730480392550E-09   6.53507927622010E-18   0.00000000000000E+00   0.00000000000000E+00
      0.00000000000000E+00   0.00000000000000E+00   0.00000000000000E+00   0.00000000000000E+00   0.00000000000000E+00
      3.23550593373831E-18   0.00000000000000E+00   0.00000000000000E+00   0.00000000000000E+00   0.00000000000000E+00
     -2.45254708629972E-19  -8.63737385844526E-34  -2.45254708629973E-19  -1.61652545691463E-17   6.21142053778554E-02
      6.21142052021274E-02   0.00000000000000E+00   0.00000000000000E+00   1.06730480417075E-09   6.83543102210406E-35
      1.06730480417075E-09   6.39466935918788E-18
      7.98701746544057E-02
      0.00000000000000E+00   1.77112994211244E-10   0.00000000000000E+00   0.00000000000000E+00  -1.08611462371527E-09
      8.11140872193838E-34  -1.08611462371527E-09   6.52980213288195E-18   0.00000000000000E+00   0.00000000000000E+00
      0.00000000000000E+00   0.00000000000000E+00   0.00000000000000E+00   0.00000000000000E+00   0.00000000000000E+00
      3.16089728776861E-18   0.00000000000000E+00   0.00000000000000E+00   0.00000000000000E+00   0.00000000000000E+00
     -5.08770497825920E-19  -8.66238777713512E-34  -5.08770497825921E-19  -1.61669125578771E-17   6.86883502027889E-02
      6.86883500240670E-02   0.00000000000000E+00   0.00000000000000E+00   1.08611462422404E-09   5.50979055196738E-35
      1.08611462422404E-09   6.47621313722647E-18
      8.81770398207946E-02
      0.00000000000000E+00   1.80424793531933E-10   0.00000000000000E+00   0.00000000000000E+00  -1.10691642583511E-09
      7.73250572351212E-34  -1.10691642583511E-09   6.52406846036862E-18   0.00000000000000E+00   0.00000000000000E+00
      0.00000000000000E+00   0.00000000000000E+00   0.00000000000000E+00   0.00000000000000E+00   0.00000000000000E+00
      3.07985649985309E-18   0.00000000000000E+00   0.00000000000000E+00   0.00000000000000E+00   0.00000000000000E+00
      8.72729190161891E-20  -8.17738567388260E-34   8.72729190161883E-20  -1.61688253871749E-17   7.58322542458833E-02
      7.58322540638559E-02   0.00000000000000E+00   0.00000000000000E+00   1.10691642574783E-09   4.44879950370490E-35
      1.10691642574783E-09   6.56490042695312E-18
      9.72038333016038E-02
      0.00000000000000E+00   1.84081428928180E-10   0.00000000000000E+00   0.00000000000000E+00  -1.12989586084795E-09
      8.19274747210913E-34  -1.12989586084795E-09   6.51783874212115E-18   0.00000000000000E+00   0.00000000000000E+00
      0.00000000000000E+00   0.00000000000000E+00   0.00000000000000E+00   0.00000000000000E+00   0.00000000000000E+00
      2.99182850208666E-18   0.00000000000000E+00   0.00000000000000E+00   0.00000000000000E+00   0.00000000000000E+00
     -1.14360114135646E-19  -8.52993178810859E-34  -1.14360114135647E-19  -1.61710250169934E-17   8.35952966393793E-02
      8.35952964537051E-02   0.00000000000000E+00   0.00000000000000E+00   1.12989586096231E-09   3.37184315999459E-35
      1.12989586096231E-09   6.66135777278556E-18
      1.07012948884083E-01
      0.00000000000000E+00   1.88109803810894E-10   0.00000000000000E+00   0.00000000000000E+00  -1.15522700809827E-09
      7.99621453585613E-34  -1.15522700809827E-09   6.51107003895370E-18   0.00000000000000E+00   0.00000000000000E+00
      0.00000000000000E+00   0.00000000000000E+00   0.00000000000000E+00   0.00000000000000E+00   0.00000000000000E+00
      2.89621019331719E-18   0.00000000000000E+00   0.00000000000000E+00   0.00000000000000E+00   0.00000000000000E+00
      7.77119796377574E-19  -8.24084394131256E-34   7.77119796377573E-19  -1.61735464567820E-17   9.20311360403115E-02
      9.20311358506189E-02   0.00000000000000E+00   0.00000000000000E+00   1.15522700732115E-09   2.44629405456432E-35
      1.15522700732115E-09   6.76626622451109E-18
      1.17012948884083E-01
      0.00000000000000E+00   1.92267139559026E-10   0.00000000000000E+00   0.00000000000000E+00  -1.18138957476996E-09
      7.75422540373178E-34  -1.18138957476996E-09   6.50417050317760E-18   0.00000000000000E+00   0.00000000000000E+00
      0.00000000000000E+00   0.00000000000000E+00   0.00000000000000E+00   0.00000000000000E+00   0.00000000000000E+00
      2.79876871555657E-18   0.00000000000000E+00   0.00000000000000E+00   0.00000000000000E+00   0.00000000000000E+00
     -1.01517665013917E-18  -7.94754652678086E-34  -1.01517665013917E-18  -1.61762456331827E-17   1.00631136040312E-01
      1.00631135846472E-01   0.00000000000000E+00   0.00000000000000E+00   1.18138957578514E-09   1.93321123049078E-35
      1.18138957578514E-09   6.87330641444849E-18
      1.27012948884083E-01
      0.00000000000000E+00   1.96482233122579E-10   0.00000000000000E+00   0.00000000000000E+00  -1.20793790024686E-09
      7.51237342974211E-34  -1.20793790024686E-09   6.49727176165281E-18   0.00000000000000E+00   0.00000000000000E+00
      0.00000000000000E+00   0.00000000000000E+00   0.00000000000000E+00   0.00000000000000E+00   0.00000000000000E+00
      2.70136145145826E-18   0.00000000000000E+00   0.00000000000000E+00   0.00000000000000E+00   0.00000000000000E+00
      5.75774073753762E-19  -7.64564548168873E-34   5.75774073753761E-19  -1.61790634402267E-17   1.09231136040312E-01
      1.09231135842272E-01   0.00000000000000E+00   0.00000000000000E+00   1.20793789967109E-09   1.33272051946617E-35
      1.20793789967109E-09   6.98043022711569E-18
      1.37012948884083E-01
      0.00000000000000E+00   2.00765641636619E-10   0.00000000000000E+00   0.00000000000000E+00  -1.23493797327283E-09
      8.30227154550861E-34  -1.23493797327283E-09   6.49037372393225E-18   0.00000000000000E+00   0.00000000000000E+00
      0.00000000000000E+00   0.00000000000000E+00   0.00000000000000E+00   0.00000000000000E+00   0.00000000000000E+00
      2.60398511715104E-18   0.00000000000000E+00   0.00000000000000E+00   0.00000000000000E+00   0.00000000000000E+00
     -5.05846262153778E-19  -8.40322738610558E-34  -5.05846262153779E-19  -1.61819896340061E-17   1.17831136040312E-01
      1.17831135838012E-01   0.00000000000000E+00   0.00000000000000E+00   1.23493797377867E-09   1.00955840596963E-35
      1.23493797377867E-09   7.08763079292292E-18
      1.47012948884083E-01
      0.00000000000000E+00   2.05124374941975E-10   0.00000000000000E+00   0.00000000000000E+00  -1.26243328282896E-09
      7.84191449610140E-34  -1.26243328282896E-09   6.48347631183807E-18   0.00000000000000E+00   0.00000000000000E+00
      0.00000000000000E+00   0.00000000000000E+00   0.00000000000000E+00   0.00000000000000E+00   0.00000000000000E+00
      2.50663684321886E-18   0.00000000000000E+00   0.00000000000000E+00   0.00000000000000E+00   0.00000000000000E+00
     -7.65123350164997E-19  -7.91657679984999E-34  -7.65123350164998E-19  -1.61850149946762E-17   1.26431136040312E-01
      1.26431135833679E-01   0.00000000000000E+00   0.00000000000000E+00   1.26243328359409E-09   7.46623037485865E-36
      1.26243328359409E-09   7.19490183961929E-18
      1.57012948884083E-01
      0.00000000000000E+00   2.09561656788924E-10   0.00000000000000E+00   0.00000000000000E+00  -1.29044368862896E-09
      7.84292785293402E-34  -1.29044368862896E-09   6.47657945847798E-18   0.00000000000000E+00   0.00000000000000E+00
      0.00000000000000E+00   0.00000000000000E+00   0.00000000000000E+00   0.00000000000000E+00   0.00000000000000E+00
      2.40931413271772E-18   0.00000000000000E+00   0.00000000000000E+00   0.00000000000000E+00   0.00000000000000E+00
     -2.05483777386671E-18  -7.89651035962510E-34  -2.05483777386671E-18  -1.61881312246841E-17   1.35031136040312E-01
      1.35031135829266E-01   0.00000000000000E+00   0.00000000000000E+00   1.29044369068380E-09   5.35825066910822E-36
      1.29044369068380E-09   7.30223763348830E-18
      1.67012948884083E-01
      0.00000000000000E+00   2.14078552158941E-10   0.00000000000000E+00   0.00000000000000E+00  -1.31897608015283E-09
      7.91855218247137E-34  -1.31897608015283E-09   6.46968310523319E-18   0.00000000000000E+00   0.00000000000000E+00
      0.00000000000000E+00   0.00000000000000E+00   0.00000000000000E+00   0.00000000000000E+00   0.00000000000000E+00
      2.31201481388765E-18   0.00000000000000E+00   0.00000000000000E+00   0.00000000000000E+00   0.00000000000000E+00
     -1.39108959006275E-18  -7.95736626559083E-34  -1.39108959006275E-18  -1.61913308457007E-17   1.43631136040312E-01
      1.43631135824769E-01   0.00000000000000E+00   0.00000000000000E+00   1.31897608154392E-09   3.88140831194526E-36
      1.31897608154392E-09   7.40963292657990E-18
      1.77012948884083E-01
      0.00000000000000E+00   2.18675347023139E-10   0.00000000000000E+00   0.00000000000000E+00  -1.34803248922531E-09
      7.56001931035677E-34  -1.34803248922531E-09   6.46278719968686E-18   0.00000000000000E+00   0.00000000000000E+00
      0.00000000000000E+00   0.00000000000000E+00   0.00000000000000E+00   0.00000000000000E+00   0.00000000000000E+00
      2.21473697416130E-18   0.00000000000000E+00   0.00000000000000E+00   0.00000000000000E+00   0.00000000000000E+00
      2.28872232620991E-20  -7.58924965932665E-34   2.28872232620984E-20  -1.61946070795906E-17   1.52231136040312E-01
      1.52231135820191E-01   0.00000000000000E+00   0.00000000000000E+00   1.34803248920242E-09   2.92303489698746E-36
      1.34803248920242E-09   7.51708290574247E-18
      1.87012948884083E-01
      0.00000000000000E+00   2.23352187915622E-10   0.00000000000000E+00   0.00000000000000E+00  -1.37761450559913E-09