DF-ISE text

Info {
  version   = 1.0
  type      = xyplot
  datasets  = [
    "time"
    "source OuterVoltage" "source InnerVoltage" "source QuasiFermiPotential" "source DisplacementCurrent" "source eCurrent"
    "source hCurrent" "source TotalCurrent" "source Charge" "gate OuterVoltage" "gate InnerVoltage"
    "gate QuasiFermiPotential" "gate DisplacementCurrent" "gate eCurrent" "gate hCurrent" "gate TotalCurrent"
    "gate Charge" "substrate OuterVoltage" "substrate InnerVoltage" "substrate QuasiFermiPotential" "substrate DisplacementCurrent"
    "substrate eCurrent" "substrate hCurrent" "substrate TotalCurrent" "substrate Charge" "drain OuterVoltage"
    "drain InnerVoltage" "drain QuasiFermiPotential" "drain DisplacementCurrent" "drain eCurrent" "drain hCurrent"
    "drain TotalCurrent" "drain Charge" ]
  functions = [
    Time
    OuterVoltage InnerVoltage QuasiFermiPotential DisplacementCurrent eCurrent
    hCurrent TotalCurrent Charge OuterVoltage InnerVoltage
    QuasiFermiPotential DisplacementCurrent eCurrent hCurrent TotalCurrent
    Charge OuterVoltage InnerVoltage QuasiFermiPotential DisplacementCurrent
    eCurrent hCurrent TotalCurrent Charge OuterVoltage
    InnerVoltage QuasiFermiPotential DisplacementCurrent eCurrent hCurrent
    TotalCurrent Charge ]
}

Data {
      0.00000000000000E+00
      0.00000000000000E+00   0.00000000000000E+00   0.00000000000000E+00   0.00000000000000E+00   1.07967548397791E-21
     -1.82754945147043E-34   1.07967548397773E-21   5.93852692308374E-18   0.00000000000000E+00   0.00000000000000E+00
      0.00000000000000E+00   0.00000000000000E+00   0.00000000000000E+00   0.00000000000000E+00   0.00000000000000E+00
      2.35796427604862E-18   0.00000000000000E+00   0.00000000000000E+00   0.00000000000000E+00   0.00000000000000E+00
      5.23140838922290E-20   4.98537565479683E-34   5.23140838922295E-20  -1.46144787521030E-17   0.00000000000000E+00
      0.00000000000000E+00   0.00000000000000E+00   0.00000000000000E+00  -5.33937593762069E-20  -3.15782620332640E-34
     -5.33937593762072E-20   6.31798755297061E-18
      0.00000000000000E+00
      0.00000000000000E+00   0.00000000000000E+00   0.00000000000000E+00   0.00000000000000E+00  -2.90532993913860E-19
     -1.81391438167236E-34  -2.90532993913860E-19   5.93393328957449E-18   0.00000000000000E+00   0.00000000000000E+00
      0.00000000000000E+00   0.00000000000000E+00   0.00000000000000E+00   0.00000000000000E+00   0.00000000000000E+00
      2.35087707179952E-18   0.00000000000000E+00   0.00000000000000E+00   0.00000000000000E+00   0.00000000000000E+00
      1.16741772210871E-18   4.98026084635218E-34   1.16741772210871E-18  -1.45985650706145E-17   0.00000000000000E+00
     -4.54676916868944E-19   0.00000000000000E+00   0.00000000000000E+00  -8.76884728194845E-19  -3.16634646467983E-34
     -8.76884728194845E-19   6.31375470924050E-18
      1.00000000000000E-03
      0.00000000000000E+00   1.32947212218638E-12   0.00000000000000E+00   0.00000000000000E+00  -7.61185032480388E-12
     -2.10114636875797E-34  -7.61185032480388E-12   5.93388674714146E-18   0.00000000000000E+00   0.00000000000000E+00
      0.00000000000000E+00   0.00000000000000E+00   0.00000000000000E+00   0.00000000000000E+00   0.00000000000000E+00
      2.35017695711111E-18   0.00000000000000E+00   0.00000000000000E+00   0.00000000000000E+00   0.00000000000000E+00
      5.76789739592275E-21   5.06472046677529E-34   5.76789739592326E-21  -1.45985427514381E-17   5.00000000000000E-05
      4.99999986606567E-05   0.00000000000000E+00   0.00000000000000E+00   7.61185031903598E-12  -2.96357409801732E-34
      7.61185031903598E-12   6.31447904718557E-18
      2.09333333333333E-03
      0.00000000000000E+00   2.77851563464786E-12   0.00000000000000E+00   0.00000000000000E+00  -1.59082703401580E-11
     -2.19994698937254E-34  -1.59082703401580E-11   5.93383586103984E-18   0.00000000000000E+00   0.00000000000000E+00
      0.00000000000000E+00   0.00000000000000E+00   0.00000000000000E+00   0.00000000000000E+00   0.00000000000000E+00
      2.34941150583187E-18   0.00000000000000E+00   0.00000000000000E+00   0.00000000000000E+00   0.00000000000000E+00
     -7.34256626504603E-19   5.23141404285133E-34  -7.34256626504603E-19  -1.45985183676650E-17   1.04666666666667E-04
      1.04666663867538E-04   0.00000000000000E+00   0.00000000000000E+00   1.59082710744147E-11  -3.03146705347880E-34
      1.59082710744147E-11   6.31527100079328E-18
      3.29600000000000E-03
      0.00000000000000E+00   4.36677758163928E-12   0.00000000000000E+00   0.00000000000000E+00  -2.50018441064278E-11
     -2.20529361831094E-34  -2.50018441064278E-11   5.93377988668107E-18   0.00000000000000E+00   0.00000000000000E+00
      0.00000000000000E+00   0.00000000000000E+00   0.00000000000000E+00   0.00000000000000E+00   0.00000000000000E+00
      2.34856951840134E-18   0.00000000000000E+00   0.00000000000000E+00   0.00000000000000E+00   0.00000000000000E+00
     -1.96915670209181E-18   5.34420655616803E-34  -1.96915670209181E-18  -1.45984915678505E-17   1.64800000000000E-04
      1.64799995600820E-04   0.00000000000000E+00   0.00000000000000E+00   2.50018460755845E-11  -3.13891293785709E-34
      2.50018460755845E-11   6.31614216276803E-18
      4.61893333333333E-03
      0.00000000000000E+00   6.10686251665008E-12   0.00000000000000E+00   0.00000000000000E+00  -3.49645891359533E-11
     -2.42087002621678E-34  -3.49645891359533E-11   5.93371831531428E-18   0.00000000000000E+00   0.00000000000000E+00
      0.00000000000000E+00   0.00000000000000E+00   0.00000000000000E+00   0.00000000000000E+00   0.00000000000000E+00
      2.34764334307974E-18   0.00000000000000E+00   0.00000000000000E+00   0.00000000000000E+00   0.00000000000000E+00
     -8.03597919076800E-19   5.62653803782573E-34  -8.03597919076800E-19  -1.45984621150610E-17   2.30946666666667E-04
      2.30946660514501E-04   0.00000000000000E+00   0.00000000000000E+00   3.49645899395513E-11  -3.20566801160895E-34
      3.49645899395513E-11   6.31710045666698E-18
      6.07416000000000E-03
      0.00000000000000E+00   8.01233254275663E-12   0.00000000000000E+00   0.00000000000000E+00  -4.58742393841234E-11
     -1.88353091297358E-34  -4.58742393841234E-11   5.93365058732912E-18   0.00000000000000E+00   0.00000000000000E+00
      0.00000000000000E+00   0.00000000000000E+00   0.00000000000000E+00   0.00000000000000E+00   0.00000000000000E+00
      2.34662456334395E-18   0.00000000000000E+00   0.00000000000000E+00   0.00000000000000E+00   0.00000000000000E+00
      1.23812021343367E-18   5.08211386699909E-34   1.23812021343367E-18  -1.45984297496443E-17   3.03708000000000E-04
      3.03707991928229E-04   0.00000000000000E+00   0.00000000000000E+00   4.58742381460031E-11  -3.19858295402553E-34
      4.58742381460031E-11   6.31815459897119E-18
      7.67490933333333E-03
      0.00000000000000E+00   1.00977959746210E-11   0.00000000000000E+00   0.00000000000000E+00  -5.78144419122761E-11
     -2.09592121909653E-34  -5.78144419122761E-11   5.93357608717291E-18   0.00000000000000E+00   0.00000000000000E+00
      0.00000000000000E+00   0.00000000000000E+00   0.00000000000000E+00   0.00000000000000E+00   0.00000000000000E+00
      2.34550392149031E-18   0.00000000000000E+00   0.00000000000000E+00   0.00000000000000E+00   0.00000000000000E+00
     -3.01637920971939E-18   4.98665838468851E-34  -3.01637920971938E-18  -1.45983941871596E-17   3.83745466666667E-04
      3.83745456493979E-04   0.00000000000000E+00   0.00000000000000E+00   5.78144449286553E-11  -2.89073716559199E-34
      5.78144449286553E-11   6.31931417849630E-18
      9.43573360000000E-03
      0.00000000000000E+00   1.23789323457214E-11   0.00000000000000E+00   0.00000000000000E+00  -7.08749389206014E-11
     -2.46621683246133E-34  -7.08749389206014E-11   5.93349413776051E-18   0.00000000000000E+00   0.00000000000000E+00
      0.00000000000000E+00   0.00000000000000E+00   0.00000000000000E+00   0.00000000000000E+00   0.00000000000000E+00
      2.34427123461394E-18   0.00000000000000E+00   0.00000000000000E+00   0.00000000000000E+00   0.00000000000000E+00
      1.10629446990089E-18   5.65018994324449E-34   1.10629446990089E-18  -1.45983551161430E-17   4.71786680000000E-04
      4.71786667529256E-04   0.00000000000000E+00   0.00000000000000E+00   7.08749378143069E-11  -3.18397311078317E-34
      7.08749378143069E-11   6.32058974376853E-18
      1.13726402933333E-02
      0.00000000000000E+00   1.48725151421981E-11   0.00000000000000E+00   0.00000000000000E+00  -8.51516996280123E-11
     -1.89510214280940E-34  -8.51516996280123E-11   5.93340399432567E-18   0.00000000000000E+00   0.00000000000000E+00
      0.00000000000000E+00   0.00000000000000E+00   0.00000000000000E+00   0.00000000000000E+00   0.00000000000000E+00
      2.34291530220636E-18   0.00000000000000E+00   0.00000000000000E+00   0.00000000000000E+00   0.00000000000000E+00
     -8.38567968759496E-19   5.27760062225702E-34  -8.38567968759496E-19  -1.45983121956999E-17   5.68632014666667E-04
      5.68631999683864E-04   0.00000000000000E+00   0.00000000000000E+00   8.51517004665803E-11  -3.38249847944762E-34
      8.51517004665803E-11   6.32199289916788E-18
      1.35032376560000E-02
      0.00000000000000E+00   1.75963922517458E-11   0.00000000000000E+00   0.00000000000000E+00  -1.00746981216364E-10
     -2.13295692703196E-34  -1.00746981216364E-10   5.93330483765870E-18   0.00000000000000E+00   0.00000000000000E+00
      0.00000000000000E+00   0.00000000000000E+00   0.00000000000000E+00   0.00000000000000E+00   0.00000000000000E+00
      2.34142380453725E-18   0.00000000000000E+00   0.00000000000000E+00   0.00000000000000E+00   0.00000000000000E+00
      2.67893295772036E-19   5.17672267233124E-34   2.67893295772037E-19  -1.45982650529174E-17   6.75161882800000E-04
      6.75161865073136E-04   0.00000000000000E+00   0.00000000000000E+00   1.00746980948471E-10  -3.04376574529929E-34
      1.00746980948471E-10   6.32353641072151E-18
      1.58468947549333E-02
      0.00000000000000E+00   2.05695305219518E-11   0.00000000000000E+00   0.00000000000000E+00  -1.17769289375379E-10
     -2.06660961939509E-34  -1.17769289375379E-10   5.93319576666903E-18   0.00000000000000E+00   0.00000000000000E+00
      0.00000000000000E+00   0.00000000000000E+00   0.00000000000000E+00   0.00000000000000E+00   0.00000000000000E+00
      2.33978319090384E-18   0.00000000000000E+00   0.00000000000000E+00   0.00000000000000E+00   0.00000000000000E+00
     -1.21613394761419E-18   5.12092242291458E-34  -1.21613394761419E-18  -1.45982132800924E-17   7.92344737746667E-04
      7.92344717024640E-04   0.00000000000000E+00   0.00000000000000E+00   1.17769290591513E-10  -3.05431280351948E-34
      1.17769290591513E-10   6.32523432251941E-18
      1.84249175637600E-02
      0.00000000000000E+00   2.38119452853734E-11   0.00000000000000E+00   0.00000000000000E+00  -1.36333221442388E-10
     -2.14451115960184E-34  -1.36333221442388E-10   5.93307579020532E-18   0.00000000000000E+00   0.00000000000000E+00
      0.00000000000000E+00   0.00000000000000E+00   0.00000000000000E+00   0.00000000000000E+00   0.00000000000000E+00
      2.33797855673753E-18   0.00000000000000E+00   0.00000000000000E+00   0.00000000000000E+00   0.00000000000000E+00
     -8.34929014136833E-19   5.14628032081863E-34  -8.34929014136832E-19  -1.45981564317645E-17   9.21245878188001E-04
      9.21245854199543E-04   0.00000000000000E+00   0.00000000000000E+00   1.36333222277317E-10  -3.00176916121678E-34
      1.36333222277317E-10   6.32710208482176E-18
      2.12607426534693E-02
      0.00000000000000E+00   2.73446667134467E-11   0.00000000000000E+00   0.00000000000000E+00  -1.56559137127646E-10
     -2.33122046309463E-34  -1.56559137127646E-10   5.93294381805918E-18   0.00000000000000E+00   0.00000000000000E+00
      0.00000000000000E+00   0.00000000000000E+00   0.00000000000000E+00   0.00000000000000E+00   0.00000000000000E+00
      2.33599350846786E-18   0.00000000000000E+00   0.00000000000000E+00   0.00000000000000E+00   0.00000000000000E+00
     -1.10191541877297E-19   5.19767499327909E-34  -1.10191541877297E-19  -1.45980940215688E-17   1.06303713267347E-03
      1.06303710512614E-03   0.00000000000000E+00   0.00000000000000E+00   1.56559137237837E-10  -2.86645453018447E-34
      1.56559137237837E-10   6.32915669504172E-18
      2.43801502521496E-02
      0.00000000000000E+00   3.11896370595029E-11   0.00000000000000E+00   0.00000000000000E+00  -1.78572652742075E-10
     -2.40560855137541E-34  -1.78572652742075E-10   5.93279865107162E-18   0.00000000000000E+00   0.00000000000000E+00
      0.00000000000000E+00   0.00000000000000E+00   0.00000000000000E+00   0.00000000000000E+00   0.00000000000000E+00
      2.33381001491598E-18   0.00000000000000E+00   0.00000000000000E+00   0.00000000000000E+00   0.00000000000000E+00
     -6.42073297434339E-19   5.38114317113255E-34  -6.42073297434338E-19  -1.45980255188853E-17   1.21900751260748E-03
      1.21900748118672E-03   0.00000000000000E+00   0.00000000000000E+00   1.78572653384148E-10  -2.97553461975715E-34
      1.78572653384148E-10   6.33141685289771E-18
      2.78114986106979E-02
      0.00000000000000E+00   3.53695951708314E-11   0.00000000000000E+00   0.00000000000000E+00  -2.02503883496428E-10
     -2.22818512413873E-34  -2.02503883496428E-10   5.93263897025211E-18   0.00000000000000E+00   0.00000000000000E+00
      0.00000000000000E+00   0.00000000000000E+00   0.00000000000000E+00   0.00000000000000E+00   0.00000000000000E+00
      2.33140824389225E-18   0.00000000000000E+00   0.00000000000000E+00   0.00000000000000E+00   0.00000000000000E+00
      1.26077710419025E-18   5.40610033152368E-34   1.26077710419025E-18  -1.45979503453171E-17   1.39057493053490E-03
      1.39057489490325E-03   0.00000000000000E+00   0.00000000000000E+00   2.02503882235651E-10  -3.17791520738495E-34
      2.02503882235651E-10   6.33390313117274E-18
      3.15859818051010E-02
      0.00000000000000E+00   3.99078741574521E-11   0.00000000000000E+00   0.00000000000000E+00  -2.28486386343259E-10
     -2.52569593496630E-34  -2.28486386343259E-10   5.93246332481280E-18   0.00000000000000E+00   0.00000000000000E+00
      0.00000000000000E+00   0.00000000000000E+00   0.00000000000000E+00   0.00000000000000E+00   0.00000000000000E+00
      2.32876638252745E-18   0.00000000000000E+00   0.00000000000000E+00   0.00000000000000E+00   0.00000000000000E+00
      1.10022103213245E-18   5.34024689531539E-34   1.10022103213245E-18  -1.45978678709982E-17   1.57929909025505E-03
      1.57929905005156E-03   0.00000000000000E+00   0.00000000000000E+00   2.28486385243038E-10  -2.81455096034908E-34
      2.28486385243038E-10   6.33663816365792E-18
      3.57379133189445E-02
      0.00000000000000E+00   4.48281754176877E-11   0.00000000000000E+00   0.00000000000000E+00  -2.56655770509061E-10
     -2.15535003801672E-34  -2.56655770509061E-10   5.93227011900930E-18   0.00000000000000E+00   0.00000000000000E+00
      0.00000000000000E+00   0.00000000000000E+00   0.00000000000000E+00   0.00000000000000E+00   0.00000000000000E+00
      2.32586043971896E-18   0.00000000000000E+00   0.00000000000000E+00   0.00000000000000E+00   0.00000000000000E+00
      8.29498641151786E-19   5.08474047669073E-34   8.29498641151786E-19  -1.45977774107462E-17   1.78689566594722E-03
      1.78689562078705E-03   0.00000000000000E+00   0.00000000000000E+00   2.56655769679563E-10  -2.92939043867401E-34
      2.56655769679563E-10   6.33964685201795E-18
      4.03050379841723E-02
      0.00000000000000E+00   5.01542321772447E-11   0.00000000000000E+00   0.00000000000000E+00  -2.87147884609130E-10
     -2.07988189756533E-34  -2.87147884609130E-10   5.93205759766979E-18   0.00000000000000E+00   0.00000000000000E+00
      0.00000000000000E+00   0.00000000000000E+00   0.00000000000000E+00   0.00000000000000E+00   0.00000000000000E+00
      2.32266402892891E-18   0.00000000000000E+00   0.00000000000000E+00   0.00000000000000E+00   0.00000000000000E+00
     -4.00090348080067E-19   4.94557170300659E-34  -4.00090348080067E-19  -1.45976782200981E-17   2.01525189920861E-03
      2.01525184868302E-03   0.00000000000000E+00   0.00000000000000E+00   2.87147885009220E-10  -2.86568980544125E-34
      2.87147885009220E-10   6.34295659349937E-18
      4.53288751159228E-02
      0.00000000000000E+00   5.59094471117114E-11   0.00000000000000E+00   0.00000000000000E+00  -3.20096569430128E-10
     -2.20848319747170E-34  -3.20096569430128E-10   5.93182383028180E-18   0.00000000000000E+00   0.00000000000000E+00
      0.00000000000000E+00   0.00000000000000E+00   0.00000000000000E+00   0.00000000000000E+00   0.00000000000000E+00
      2.31914812937491E-18   0.00000000000000E+00   0.00000000000000E+00   0.00000000000000E+00   0.00000000000000E+00
      5.28702320675367E-18   4.93323216505851E-34   5.28702320675367E-18  -1.45975694912500E-17   2.26644375579614E-03
      2.26644369947282E-03   0.00000000000000E+00   0.00000000000000E+00   3.20096564143105E-10  -2.72474896758682E-34
      3.20096564143105E-10   6.34659753159323E-18
      5.08550959608485E-02
      0.00000000000000E+00   6.21163662853646E-11   0.00000000000000E+00   0.00000000000000E+00  -3.55630823007992E-10
     -2.02878481746929E-34  -3.55630823007992E-10   5.93156669349332E-18   0.00000000000000E+00   0.00000000000000E+00
      0.00000000000000E+00   0.00000000000000E+00   0.00000000000000E+00   0.00000000000000E+00   0.00000000000000E+00
      2.31528082349598E-18   0.00000000000000E+00   0.00000000000000E+00   0.00000000000000E+00   0.00000000000000E+00
      7.33712748973029E-18   4.92542233443032E-34   7.33712748973029E-18  -1.45974503489764E-17   2.54275479804242E-03
      2.54275473546635E-03   0.00000000000000E+00   0.00000000000000E+00   3.55630815670864E-10  -2.89663751696104E-34
      3.55630815670864E-10   6.35060283198705E-18
      5.69339388902666E-02
      0.00000000000000E+00   6.87961044395467E-11   0.00000000000000E+00   0.00000000000000E+00  -3.93871384892277E-10
     -1.84656750524882E-34  -3.93871384892277E-10   5.93128385187115E-18   0.00000000000000E+00   0.00000000000000E+00
      0.00000000000000E+00   0.00000000000000E+00   0.00000000000000E+00   0.00000000000000E+00   0.00000000000000E+00
      2.31102700833410E-18   0.00000000000000E+00   0.00000000000000E+00   0.00000000000000E+00   0.00000000000000E+00
      1.07700033092127E-17   4.43795145665143E-34   1.07700033092127E-17  -1.45973198465838E-17   2.84669694451333E-03
      2.84669687520822E-03   0.00000000000000E+00   0.00000000000000E+00   3.93871374122274E-10  -2.59138395140261E-34
      3.93871374122274E-10   6.35500898637847E-18
      6.36206661126266E-02
      0.00000000000000E+00   7.59676075067068E-11   0.00000000000000E+00   0.00000000000000E+00  -4.34926633054382E-10
     -2.32388535440961E-34  -4.34926633054382E-10   5.93097273674272E-18   0.00000000000000E+00   0.00000000000000E+00
      0.00000000000000E+00   0.00000000000000E+00   0.00000000000000E+00   0.00000000000000E+00   0.00000000000000E+00
      2.30634807826010E-18   0.00000000000000E+00   0.00000000000000E+00   0.00000000000000E+00   0.00000000000000E+00
      1.76502009055776E-17   5.10297615611131E-34   1.76502009055776E-17  -1.45971769619880E-17   3.18103330563133E-03
      3.18103322910182E-03   0.00000000000000E+00   0.00000000000000E+00   4.34926615404181E-10  -2.77909080170170E-34
      4.34926615404181E-10   6.35985614698516E-18
      7.09760660572226E-02
      0.00000000000000E+00   8.36468423761345E-11   0.00000000000000E+00   0.00000000000000E+00  -4.78887758856654E-10
     -2.61014114948926E-34  -4.78887758856654E-10   5.93063052293199E-18   0.00000000000000E+00   0.00000000000000E+00
      0.00000000000000E+00   0.00000000000000E+00   0.00000000000000E+00   0.00000000000000E+00   0.00000000000000E+00
      2.30120157621987E-18   0.00000000000000E+00   0.00000000000000E+00   0.00000000000000E+00   0.00000000000000E+00
      3.49916029351348E-17   5.43298109496703E-34   3.49916029351348E-17  -1.45970205940394E-17   3.54880330286113E-03
      3.54880321859578E-03   0.00000000000000E+00   0.00000000000000E+00   4.78887723865051E-10  -2.82283994547777E-34
      4.78887723865051E-10   6.36518849488751E-18
      7.90670059962782E-02
      0.00000000000000E+00   9.18457602305897E-11   0.00000000000000E+00   0.00000000000000E+00  -5.25823107007441E-10
     -2.28148804441811E-34  -5.25823107007441E-10   5.93025410318062E-18   0.00000000000000E+00   0.00000000000000E+00
      0.00000000000000E+00   0.00000000000000E+00   0.00000000000000E+00   0.00000000000000E+00   0.00000000000000E+00
      2.29554081039582E-18   0.00000000000000E+00   0.00000000000000E+00   0.00000000000000E+00   0.00000000000000E+00
      4.02606183414791E-17   4.91326085711679E-34   4.02606183414791E-17  -1.45968495592291E-17   3.95335029981391E-03
      3.95335020728924E-03   0.00000000000000E+00   0.00000000000000E+00   5.25823066746823E-10  -2.63177281269869E-34
      5.25823066746823E-10   6.37105464565270E-18
      8.79670399292394E-02
      0.00000000000000E+00   1.00571280798070E-10   0.00000000000000E+00   0.00000000000000E+00  -5.75772050478031E-10
     -2.04061765841086E-34  -5.75772050478031E-10   5.92984006002097E-18   0.00000000000000E+00   0.00000000000000E+00
      0.00000000000000E+00   0.00000000000000E+00   0.00000000000000E+00   0.00000000000000E+00   0.00000000000000E+00
      2.28931443282628E-18   0.00000000000000E+00   0.00000000000000E+00   0.00000000000000E+00   0.00000000000000E+00
      8.09197939417322E-17   4.67500258404490E-34   8.09197939417322E-17  -1.45966625888874E-17   4.39835199646197E-03
      4.39835189514754E-03   0.00000000000000E+00   0.00000000000000E+00   5.75771969558237E-10  -2.63438492563404E-34
      5.75771969558237E-10   6.37750809604011E-18
      9.77570772554967E-02
      0.00000000000000E+00   1.09823966059245E-10   0.00000000000000E+00   0.00000000000000E+00  -6.28737602649649E-10
     -2.51477380767945E-34  -6.28737602649649E-10   5.92938463485575E-18   0.00000000000000E+00   0.00000000000000E+00
      0.00000000000000E+00   0.00000000000000E+00   0.00000000000000E+00   0.00000000000000E+00   0.00000000000000E+00
      2.28246597635586E-18   0.00000000000000E+00   0.00000000000000E+00   0.00000000000000E+00   0.00000000000000E+00
      9.66057587151905E-17   5.35530046237046E-34   9.66057587151905E-17  -1.45964583272464E-17   4.88785386277484E-03
      4.88785375213966E-03   0.00000000000000E+00   0.00000000000000E+00   6.28737506043890E-10  -2.84052665469101E-34
      6.28737506043890E-10   6.38460771603476E-18
      1.07757077255497E-01
      0.00000000000000E+00   1.18912579790938E-10   0.00000000000000E+00   0.00000000000000E+00  -6.80762872871278E-10
     -2.29237148343511E-34  -6.80762872871278E-10   5.92891946633470E-18   0.00000000000000E+00   0.00000000000000E+00
      0.00000000000000E+00   0.00000000000000E+00   0.00000000000000E+00   0.00000000000000E+00   0.00000000000000E+00
      2.27547124434025E-18   0.00000000000000E+00   0.00000000000000E+00   0.00000000000000E+00   0.00000000000000E+00
      1.10353382395620E-16   4.89755852564076E-34   1.10353382395620E-16  -1.45962511967031E-17   5.38785386277483E-03
      5.38785374298424E-03   0.00000000000000E+00   0.00000000000000E+00   6.80762762517895E-10  -2.60518704220565E-34
      6.80762762517895E-10   6.39186048602805E-18
      1.17757077255497E-01
      0.00000000000000E+00   1.27646415944551E-10   0.00000000000000E+00   0.00000000000000E+00  -7.30756301069747E-10
     -1.97562521082514E-34  -7.30756301069747E-10   5.92845432182616E-18   0.00000000000000E+00   0.00000000000000E+00
      0.00000000000000E+00   0.00000000000000E+00   0.00000000000000E+00   0.00000000000000E+00   0.00000000000000E+00
      2.26847711471743E-18   0.00000000000000E+00   0.00000000000000E+00   0.00000000000000E+00   0.00000000000000E+00
      1.10800261559262E-16   4.49579123981537E-34   1.10800261559262E-16  -1.45960455850395E-17   5.88785386277483E-03
      5.88785373418627E-03   0.00000000000000E+00   0.00000000000000E+00   7.30756190269485E-10  -2.52016602899023E-34
      7.30756190269485E-10   6.39911414849588E-18
      1.27757077255497E-01
      0.00000000000000E+00   1.36037035590050E-10   0.00000000000000E+00   0.00000000000000E+00  -7.78784238793250E-10
     -2.12960474896058E-34  -7.78784238793250E-10   5.92798920113635E-18   0.00000000000000E+00   0.00000000000000E+00
      0.00000000000000E+00   0.00000000000000E+00   0.00000000000000E+00   0.00000000000000E+00   0.00000000000000E+00
      2.26148358318645E-18   0.00000000000000E+00   0.00000000000000E+00   0.00000000000000E+00   0.00000000000000E+00
      1.09618397521300E-16   4.71013656061648E-34   1.09618397521300E-16  -1.45958414832762E-17   6.38785386277483E-03
      6.38785372573410E-03   0.00000000000000E+00   0.00000000000000E+00   7.78784129174852E-10  -2.58053181165590E-34
      7.78784129174852E-10   6.40636869895343E-18
      1.37757077255497E-01
      0.00000000000000E+00   1.44095821564050E-10   0.00000000000000E+00   0.00000000000000E+00  -8.24912017507007E-10
     -2.01622477832363E-34  -8.24912017507007E-10   5.92752410407347E-18   0.00000000000000E+00   0.00000000000000E+00
      0.00000000000000E+00   0.00000000000000E+00   0.00000000000000E+00   0.00000000000000E+00   0.00000000000000E+00
      2.25449064553698E-18   0.00000000000000E+00   0.00000000000000E+00   0.00000000000000E+00   0.00000000000000E+00
      1.12505098073316E-16   4.43108933615096E-34   1.12505098073316E-16  -1.45956388825747E-17   6.88785386277483E-03
      6.88785371761623E-03   0.00000000000000E+00   0.00000000000000E+00   8.24911905001908E-10  -2.41486455782733E-34
      8.24911905001908E-10   6.41362413296423E-18
      1.47757077255497E-01
      0.00000000000000E+00   1.51834019845411E-10   0.00000000000000E+00   0.00000000000000E+00  -8.69204105628538E-10
     -1.88353497767192E-34  -8.69204105628538E-10   5.92705903044379E-18   0.00000000000000E+00   0.00000000000000E+00
      0.00000000000000E+00   0.00000000000000E+00   0.00000000000000E+00   0.00000000000000E+00   0.00000000000000E+00
      2.24749829753184E-18   0.00000000000000E+00   0.00000000000000E+00   0.00000000000000E+00   0.00000000000000E+00
      1.14720408930918E-16   4.37652472209324E-34   1.14720408930918E-16  -1.45954377740749E-17   7.38785386277483E-03
      7.38785370982136E-03   0.00000000000000E+00   0.00000000000000E+00   8.69203990908130E-10  -2.49298974442131E-34
      8.69203990908130E-10   6.42088044609926E-18
      1.57757077255497E-01
      0.00000000000000E+00   1.59262666806937E-10   0.00000000000000E+00   0.00000000000000E+00  -9.11723789026600E-10
     -2.05415300946295E-34  -9.11723789026600E-10   5.92659398005259E-18   0.00000000000000E+00   0.00000000000000E+00
      0.00000000000000E+00   0.00000000000000E+00   0.00000000000000E+00   0.00000000000000E+00   0.00000000000000E+00
      2.24050653495717E-18   0.00000000000000E+00   0.00000000000000E+00   0.00000000000000E+00   0.00000000000000E+00
      1.07104840748905E-16   4.37772751386860E-34   1.07104840748905E-16  -1.45952381489616E-17   7.88785386277484E-03
      7.88785370233836E-03   0.00000000000000E+00   0.00000000000000E+00   9.11723681921760E-10  -2.32357450440565E-34
      9.11723681921760E-10   6.42813763395175E-18
      1.67757077255497E-01
      0.00000000000000E+00   1.66392552841219E-10   0.00000000000000E+00   0.00000000000000E+00  -9.52533075928823E-10
     -2.08467357570322E-34  -9.52533075928823E-10   5.92612895270497E-18   0.00000000000000E+00   0.00000000000000E+00
      0.00000000000000E+00   0.00000000000000E+00   0.00000000000000E+00   0.00000000000000E+00   0.00000000000000E+00
      2.23351535362282E-18   0.00000000000000E+00   0.00000000000000E+00   0.00000000000000E+00   0.00000000000000E+00
      1.05959538565840E-16   4.44059184063215E-34   1.05959538565840E-16  -1.45950399984653E-17   8.38785386277484E-03
      8.38785369515634E-03   0.00000000000000E+00   0.00000000000000E+00   9.52532969969285E-10  -2.35591826492893E-34
      9.52532969969285E-10   6.43539569213753E-18
      1.77757077255497E-01
      0.00000000000000E+00   1.73234249186574E-10   0.00000000000000E+00   0.00000000000000E+00  -9.91692466377495E-10
     -2.26694871717013E-34  -9.91692466377495E-10   5.92566394820773E-18   0.00000000000000E+00   0.00000000000000E+00
      0.00000000000000E+00   0.00000000000000E+00   0.00000000000000E+00   0.00000000000000E+00   0.00000000000000E+00
      2.22652474939542E-18   0.00000000000000E+00   0.00000000000000E+00   0.00000000000000E+00   0.00000000000000E+00
      1.03545985788022E-16   4.45446397032504E-34   1.03545985788022E-16  -1.45948433139108E-17   8.88785386277484E-03
      8.88785368826466E-03   0.00000000000000E+00   0.00000000000000E+00   9.91692362831509E-10  -2.18751525315491E-34
      9.91692362831509E-10   6.44265461630762E-18
      1.87757077255497E-01
      0.00000000000000E+00   1.79798020174401E-10   0.00000000000000E+00   0.00000000000000E+00  -1.02926086050657E-09
     -1.95636792641240E-34  -1.02926086050657E-09   5.92519896636990E-18   0.00000000000000E+00   0.00000000000000E+00
      0.00000000000000E+00   0.00000000000000E+00   0.00000000000000E+00   0.00000000000000E+00   0.00000000000000E+00
      2.21953471820502E-18   0.00000000000000E+00   0.00000000000000E+00   0.00000000000000E+00   0.00000000000000E+00
     -2.68055381623726E-19   4.06962433762742E-34  -2.68055381623725E-19  -1.45946480867345E-17   9.38785386277484E-03
      9.38785368165300E-03   0.00000000000000E+00   0.00000000000000E+00   1.02926086077462E-09  -2.11325641121502E-34
      1.02926086077462E-09   6.44991440215953E-18
      1.97757077255497E-01
      0.00000000000000E+00   1.86093924167455E-10   0.00000000000000E+00   0.00000000000000E+00  -1.06529612117833E-09