DF-ISE text

Info {
  version   = 1.0
  type      = xyplot
  datasets  = [
    "time"
    "source OuterVoltage" "source InnerVoltage" "source QuasiFermiPotential" "source DisplacementCurrent" "source eCurrent"
    "source hCurrent" "source TotalCurrent" "source Charge" "gate OuterVoltage" "gate InnerVoltage"
    "gate QuasiFermiPotential" "gate DisplacementCurrent" "gate eCurrent" "gate hCurrent" "gate TotalCurrent"
    "gate Charge" "substrate OuterVoltage" "substrate InnerVoltage" "substrate QuasiFermiPotential" "substrate DisplacementCurrent"
    "substrate eCurrent" "substrate hCurrent" "substrate TotalCurrent" "substrate Charge" "drain OuterVoltage"
    "drain InnerVoltage" "drain QuasiFermiPotential" "drain DisplacementCurrent" "drain eCurrent" "drain hCurrent"
    "drain TotalCurrent" "drain Charge" ]
  functions = [
    Time
    OuterVoltage InnerVoltage QuasiFermiPotential DisplacementCurrent eCurrent
    hCurrent TotalCurrent Charge OuterVoltage InnerVoltage
    QuasiFermiPotential DisplacementCurrent eCurrent hCurrent TotalCurrent
    Charge OuterVoltage InnerVoltage QuasiFermiPotential DisplacementCurrent
    eCurrent hCurrent TotalCurrent Charge OuterVoltage
    InnerVoltage QuasiFermiPotential DisplacementCurrent eCurrent hCurrent
    TotalCurrent Charge ]
}

Data {
      0.00000000000000E+00
      0.00000000000000E+00   0.00000000000000E+00   0.00000000000000E+00   0.00000000000000E+00  -2.93759881563125E-21
      3.69462764009748E-34  -2.93759881563088E-21   5.96077636625221E-18   0.00000000000000E+00   0.00000000000000E+00
      0.00000000000000E+00   0.00000000000000E+00   0.00000000000000E+00   0.00000000000000E+00   0.00000000000000E+00
      2.59129170224325E-18   0.00000000000000E+00   0.00000000000000E+00   0.00000000000000E+00   0.00000000000000E+00
     -1.15924603146690E-20  -6.29963699379225E-34  -1.15924603146696E-20  -1.48590842325461E-17   0.00000000000000E+00
      0.00000000000000E+00   0.00000000000000E+00   0.00000000000000E+00   1.45300591303002E-20   2.60500935369477E-34
      1.45300591303005E-20   6.30701616405070E-18
      0.00000000000000E+00
      0.00000000000000E+00   8.96046216658798E-19   0.00000000000000E+00   0.00000000000000E+00  -3.16527034922282E-19
      3.49887582716498E-34  -3.16527034922282E-19   5.95591532826439E-18   0.00000000000000E+00   0.00000000000000E+00
      0.00000000000000E+00   0.00000000000000E+00   0.00000000000000E+00   0.00000000000000E+00   0.00000000000000E+00
      2.58405070736018E-18   0.00000000000000E+00   0.00000000000000E+00   0.00000000000000E+00   0.00000000000000E+00
      3.50860426405878E-18  -6.35612233836280E-34   3.50860426405878E-18  -1.48425450781515E-17   0.00000000000000E+00
     -9.00438600073792E-19   0.00000000000000E+00   0.00000000000000E+00  -3.19207722913650E-18   2.85724651119783E-34
     -3.19207722913650E-18   6.30257904252693E-18
      1.00000000000000E-03
      0.00000000000000E+00   1.55502562018311E-11   0.00000000000000E+00   0.00000000000000E+00  -8.55999460195178E-11
      3.46091055835578E-34  -8.55999460195178E-11   5.95509343530739E-18   0.00000000000000E+00   0.00000000000000E+00
      0.00000000000000E+00   0.00000000000000E+00   0.00000000000000E+00   0.00000000000000E+00   0.00000000000000E+00
      2.57282922785032E-18   0.00000000000000E+00   0.00000000000000E+00   0.00000000000000E+00   0.00000000000000E+00
     -4.02179163160704E-19  -6.44745634184122E-34  -4.02179163160705E-19  -1.48422544456223E-17   8.60000000000000E-04
      8.59999984473098E-04   0.00000000000000E+00   0.00000000000000E+00   8.55999464216970E-11   2.98654578348544E-34
      8.55999464216970E-11   6.31433178246456E-18
      2.08666666666667E-03
      0.00000000000000E+00   3.14223341227218E-11   0.00000000000000E+00   0.00000000000000E+00  -1.72967418485705E-10
      3.98442237283684E-34  -1.72967418485705E-10   5.95420037952989E-18   0.00000000000000E+00   0.00000000000000E+00
      0.00000000000000E+00   0.00000000000000E+00   0.00000000000000E+00   0.00000000000000E+00   0.00000000000000E+00
      2.56063688854711E-18   0.00000000000000E+00   0.00000000000000E+00   0.00000000000000E+00   0.00000000000000E+00
     -2.05395705963046E-19  -6.76355445011298E-34  -2.05395705963047E-19  -1.48419430763404E-17   1.79453333333333E-03
      1.79453330195848E-03   0.00000000000000E+00   0.00000000000000E+00   1.72967418691100E-10   2.77913207727614E-34
      1.72967418691100E-10   6.32710580826344E-18
      3.27475555555556E-03
      0.00000000000000E+00   4.75722128041402E-11   0.00000000000000E+00   0.00000000000000E+00  -2.61858783693101E-10
      3.63356412938496E-34  -2.61858783693101E-10   5.95322405198620E-18   0.00000000000000E+00   0.00000000000000E+00
      0.00000000000000E+00   0.00000000000000E+00   0.00000000000000E+00   0.00000000000000E+00   0.00000000000000E+00
      2.54730856020347E-18   0.00000000000000E+00   0.00000000000000E+00   0.00000000000000E+00   0.00000000000000E+00
     -3.05282937354969E-19  -6.01585007111059E-34  -3.05282937354970E-19  -1.48416078951089E-17   2.81628977777778E-03
      2.81628973027787E-03   0.00000000000000E+00   0.00000000000000E+00   2.61858783998384E-10   2.38228594172563E-34
      2.61858783998384E-10   6.34107528291931E-18
      4.57373274074074E-03
      0.00000000000000E+00   6.38547824895524E-11   0.00000000000000E+00   0.00000000000000E+00  -3.51474411550854E-10
      3.51223067168229E-34  -3.51474411550854E-10   5.95215669496211E-18   0.00000000000000E+00   0.00000000000000E+00
      0.00000000000000E+00   0.00000000000000E+00   0.00000000000000E+00   0.00000000000000E+00   0.00000000000000E+00
      2.53273856750728E-18   0.00000000000000E+00   0.00000000000000E+00   0.00000000000000E+00   0.00000000000000E+00
     -9.03373229064070E-19  -6.05940086365551E-34  -9.03373229064071E-19  -1.48412476327303E-17   3.93341015703704E-03
      3.93341009327988E-03   0.00000000000000E+00   0.00000000000000E+00   3.51474412454227E-10   2.54717019197322E-34
      3.51474412454227E-10   6.35635237026084E-18
      5.99394779654321E-03
      0.00000000000000E+00   8.01129613489241E-11   0.00000000000000E+00   0.00000000000000E+00  -4.40949540508891E-10
      3.55828303915547E-34  -4.40949540508891E-10   5.95098982896397E-18   0.00000000000000E+00   0.00000000000000E+00
      0.00000000000000E+00   0.00000000000000E+00   0.00000000000000E+00   0.00000000000000E+00   0.00000000000000E+00
      2.51681143127738E-18   0.00000000000000E+00   0.00000000000000E+00   0.00000000000000E+00   0.00000000000000E+00
      8.54551155739735E-19  -5.89457669873537E-34   8.54551155739734E-19  -1.48408610671083E-17   5.15479510502716E-03
      5.15479502503743E-03   0.00000000000000E+00   0.00000000000000E+00   4.40949539654340E-10   2.33629365957991E-34
      4.40949539654340E-10   6.37305980686695E-18
      7.54671625755391E-03
      0.00000000000000E+00   9.61780256717509E-11   0.00000000000000E+00   0.00000000000000E+00  -5.29355799899762E-10
      3.72598426402407E-34  -5.29355799899762E-10   5.94971418568184E-18   0.00000000000000E+00   0.00000000000000E+00
      0.00000000000000E+00   0.00000000000000E+00   0.00000000000000E+00   0.00000000000000E+00   0.00000000000000E+00
      2.49940096217666E-18   0.00000000000000E+00   0.00000000000000E+00   0.00000000000000E+00   0.00000000000000E+00
      1.89979020900176E-19  -5.74281240831856E-34   1.89979020900175E-19  -1.48404470538982E-17   6.49017598149636E-03
      6.49017588546716E-03   0.00000000000000E+00   0.00000000000000E+00   5.29355799709783E-10   2.01682814429448E-34
      5.29355799709783E-10   6.39133190603973E-18
      9.24440977492561E-03
      0.00000000000000E+00   1.11872091467055E-10   0.00000000000000E+00   0.00000000000000E+00  -6.15715169161603E-10
      3.36871088864740E-34  -6.15715169161603E-10   5.94831963472480E-18   0.00000000000000E+00   0.00000000000000E+00
      0.00000000000000E+00   0.00000000000000E+00   0.00000000000000E+00   0.00000000000000E+00   0.00000000000000E+00
      2.48036927132258E-18   0.00000000000000E+00   0.00000000000000E+00   0.00000000000000E+00   0.00000000000000E+00
     -3.36609283060447E-19  -5.52969508649512E-34  -3.36609283060448E-19  -1.48400045641305E-17   7.95019240643603E-03
      7.95019229473807E-03   0.00000000000000E+00   0.00000000000000E+00   6.15715169498213E-10   2.16098419784773E-34
      6.15715169498213E-10   6.41131565808308E-18
      1.11005546872520E-02
      0.00000000000000E+00   1.27012665482122E-10   0.00000000000000E+00   0.00000000000000E+00  -6.99025207807236E-10
      3.52936780412979E-34  -6.99025207807236E-10   5.94679510352970E-18   0.00000000000000E+00   0.00000000000000E+00
      0.00000000000000E+00   0.00000000000000E+00   0.00000000000000E+00   0.00000000000000E+00   0.00000000000000E+00
      2.45956568930352E-18   0.00000000000000E+00   0.00000000000000E+00   0.00000000000000E+00   0.00000000000000E+00
     -1.20778916974978E-18  -5.56012391996952E-34  -1.20778916974978E-18  -1.48395327287838E-17   9.54647703103672E-03
      9.54647690422289E-03   0.00000000000000E+00   0.00000000000000E+00   6.99025209015025E-10   2.03075611583973E-34
      6.99025209015025E-10   6.43317193595048E-18
      1.31299397913955E-02
      0.00000000000000E+00   1.41418904981365E-10   0.00000000000000E+00   0.00000000000000E+00  -7.78293622294619E-10
      3.42413897976105E-34  -7.78293622294619E-10   5.94512848981102E-18   0.00000000000000E+00   0.00000000000000E+00
      0.00000000000000E+00   0.00000000000000E+00   0.00000000000000E+00   0.00000000000000E+00   0.00000000000000E+00
      2.43682558531884E-18   0.00000000000000E+00   0.00000000000000E+00   0.00000000000000E+00   0.00000000000000E+00
     -2.29339571564924E-18  -5.10975714817805E-34  -2.29339571564924E-18  -1.48390308915666E-17   1.12917482206002E-02
      1.12917480794038E-02   0.00000000000000E+00   0.00000000000000E+00   7.78293624588014E-10   1.68561816841700E-34
      7.78293624588014E-10   6.45707681643679E-18
      1.53487341719258E-02
      0.00000000000000E+00   1.54919402147839E-10   0.00000000000000E+00   0.00000000000000E+00  -8.52580894015610E-10
      3.69880605512050E-34  -8.52580894015610E-10   5.94330656585313E-18   0.00000000000000E+00   0.00000000000000E+00
      0.00000000000000E+00   0.00000000000000E+00   0.00000000000000E+00   0.00000000000000E+00   0.00000000000000E+00
      2.41196907735018E-18   0.00000000000000E+00   0.00000000000000E+00   0.00000000000000E+00   0.00000000000000E+00
      7.74225318080945E-19  -5.54990947903973E-34   7.74225318080944E-19  -1.48384986712252E-17   1.31999113878562E-02
      1.31999112331818E-02   0.00000000000000E+00   0.00000000000000E+00   8.52580893241384E-10   1.85110342391923E-34
      8.52580893241384E-10   6.48322302802195E-18
      1.77746160279722E-02
      0.00000000000000E+00   1.67361271783965E-10   0.00000000000000E+00   0.00000000000000E+00  -9.21050877270331E-10
      3.52195128331324E-34  -9.21050877270331E-10   5.94131487386341E-18   0.00000000000000E+00   0.00000000000000E+00
      0.00000000000000E+00   0.00000000000000E+00   0.00000000000000E+00   0.00000000000000E+00   0.00000000000000E+00
      2.38479962270665E-18   0.00000000000000E+00   0.00000000000000E+00   0.00000000000000E+00   0.00000000000000E+00
     -3.25043914264667E-19  -5.10223715332709E-34  -3.25043914264667E-19  -1.48379360338495E-17   1.52861697840561E-02
      1.52861696169607E-02   0.00000000000000E+00   0.00000000000000E+00   9.21050877595375E-10   1.58028587001385E-34
      9.21050877595375E-10   6.51182153727944E-18
      2.04269135239163E-02
      0.00000000000000E+00   1.78620561576478E-10   0.00000000000000E+00   0.00000000000000E+00  -9.83027621849743E-10
      3.35206258769848E-34  -9.83027621849743E-10   5.93913761155719E-18   0.00000000000000E+00   0.00000000000000E+00
      0.00000000000000E+00   0.00000000000000E+00   0.00000000000000E+00   0.00000000000000E+00   0.00000000000000E+00
      2.35510247801479E-18   0.00000000000000E+00   0.00000000000000E+00   0.00000000000000E+00   0.00000000000000E+00
     -4.65813446002809E-19  -4.79611410284603E-34  -4.65813446002809E-19  -1.48373433766760E-17   1.75671456305680E-02
      1.75671454522322E-02   0.00000000000000E+00   0.00000000000000E+00   9.83027622315557E-10   1.44405151514756E-34
      9.83027622315557E-10   6.54310328710399E-18
      2.33267587861485E-02
      0.00000000000000E+00   1.88613319611268E-10   0.00000000000000E+00   0.00000000000000E+00  -1.03805664525342E-09
      3.29593408213511E-34  -1.03805664525342E-09   5.93675750702053E-18   0.00000000000000E+00   0.00000000000000E+00
      0.00000000000000E+00   0.00000000000000E+00   0.00000000000000E+00   0.00000000000000E+00   0.00000000000000E+00
      2.32264301601496E-18   0.00000000000000E+00   0.00000000000000E+00   0.00000000000000E+00   0.00000000000000E+00
      2.12099104772467E-19  -4.61999220497477E-34   2.12099104772467E-19  -1.48367216240139E-17   2.00610125560877E-02
      2.00610123677761E-02   0.00000000000000E+00   0.00000000000000E+00   1.03805664504132E-09   1.32405812283967E-34
      1.03805664504132E-09   6.57732110097842E-18
      2.64972562728556E-02
      0.00000000000000E+00   1.97307059732751E-10   0.00000000000000E+00   0.00000000000000E+00  -1.08596765308662E-09
      3.05812596727446E-34  -1.08596765308662E-09   5.93415568181368E-18   0.00000000000000E+00   0.00000000000000E+00
      0.00000000000000E+00   0.00000000000000E+00   0.00000000000000E+00   0.00000000000000E+00   0.00000000000000E+00
      2.28716488448300E-18   0.00000000000000E+00   0.00000000000000E+00   0.00000000000000E+00   0.00000000000000E+00
      8.50706905208445E-19  -4.32354731108442E-34   8.50706905208445E-19  -1.48360723346776E-17   2.27876403946559E-02
      2.27876401976653E-02   0.00000000000000E+00   0.00000000000000E+00   1.08596765223591E-09   1.26542134380997E-34
      1.08596765223591E-09   6.61475176838092E-18
      2.99636668583222E-02
      0.00000000000000E+00   2.04730838031595E-10   0.00000000000000E+00   0.00000000000000E+00  -1.12693006886334E-09
      3.72422912892289E-34  -1.12693006886334E-09   5.93131150124868E-18   0.00000000000000E+00   0.00000000000000E+00
      0.00000000000000E+00   0.00000000000000E+00   0.00000000000000E+00   0.00000000000000E+00   0.00000000000000E+00
      2.24838799363946E-18   0.00000000000000E+00   0.00000000000000E+00   0.00000000000000E+00   0.00000000000000E+00
     -9.02580210812725E-19  -4.76894343768275E-34  -9.02580210812725E-19  -1.48353978235665E-17   2.57687534981571E-02
      2.57687532937555E-02   0.00000000000000E+00   0.00000000000000E+00   1.12693006976592E-09   1.04471430875986E-34
      1.12693006976592E-09   6.65569832867836E-18
      3.37536090984323E-02
      0.00000000000000E+00   2.10982729902374E-10   0.00000000000000E+00   0.00000000000000E+00  -1.16149339374065E-09
      3.33859834861581E-34  -1.16149339374065E-09   5.92820241059876E-18   0.00000000000000E+00   0.00000000000000E+00
      0.00000000000000E+00   0.00000000000000E+00   0.00000000000000E+00   0.00000000000000E+00   0.00000000000000E+00
      2.20600631441793E-18   0.00000000000000E+00   0.00000000000000E+00   0.00000000000000E+00   0.00000000000000E+00
     -8.55232503463079E-19  -4.28394568201727E-34  -8.55232503463080E-19  -1.48347012964176E-17   2.90281038246517E-02
      2.90281036140093E-02   0.00000000000000E+00   0.00000000000000E+00   1.16149339459588E-09   9.45347333401457E-35
      1.16149339459588E-09   6.70049257140088E-18
      3.78972792809526E-02
      0.00000000000000E+00   2.16232074191321E-10   0.00000000000000E+00   0.00000000000000E+00  -1.19059918756157E-09
      3.39918920884905E-34  -1.19059918756157E-09   5.92480375588546E-18   0.00000000000000E+00   0.00000000000000E+00
      0.00000000000000E+00   0.00000000000000E+00   0.00000000000000E+00   0.00000000000000E+00   0.00000000000000E+00
      2.15968546831512E-18   0.00000000000000E+00   0.00000000000000E+00   0.00000000000000E+00   0.00000000000000E+00
     -1.30226886691780E-18  -4.27784587430867E-34  -1.30226886691780E-18  -1.48339869961161E-17   3.25916601816192E-02
      3.25916599657373E-02   0.00000000000000E+00   0.00000000000000E+00   1.19059918886384E-09   8.78656665459619E-35
      1.19059918886384E-09   6.74949777191547E-18
      4.24276920138415E-02
      0.00000000000000E+00   2.20714307041863E-10   0.00000000000000E+00   0.00000000000000E+00  -1.21555188739801E-09
      3.61804498487901E-34  -1.21555188739801E-09   5.92108858787255E-18   0.00000000000000E+00   0.00000000000000E+00
      0.00000000000000E+00   0.00000000000000E+00   0.00000000000000E+00   0.00000000000000E+00   0.00000000000000E+00
      2.10906008954137E-18   0.00000000000000E+00   0.00000000000000E+00   0.00000000000000E+00   0.00000000000000E+00
     -5.17596305188056E-19  -4.33317807554329E-34  -5.17596305188057E-19  -1.48332603612567E-17   3.64878151319037E-02
      3.64878149115493E-02   0.00000000000000E+00   0.00000000000000E+00   1.21555188791560E-09   7.15133090664274E-35
      1.21555188791560E-09   6.80311168384286E-18
      4.73809432684667E-02
      0.00000000000000E+00   2.24716079463010E-10   0.00000000000000E+00   0.00000000000000E+00  -1.23793733523698E-09
      3.71207926704980E-34  -1.23793733523698E-09   5.91702744809135E-18   0.00000000000000E+00   0.00000000000000E+00
      0.00000000000000E+00   0.00000000000000E+00   0.00000000000000E+00   0.00000000000000E+00   0.00000000000000E+00
      2.05373094310076E-18   0.00000000000000E+00   0.00000000000000E+00   0.00000000000000E+00   0.00000000000000E+00
     -1.28797589661186E-18  -4.34502053351632E-34  -1.28797589661186E-18  -1.48325282035441E-17   4.07476112108814E-02
      4.07476109865362E-02   0.00000000000000E+00   0.00000000000000E+00   1.23793733652495E-09   6.32941266466517E-35
      1.23793733652495E-09   6.86176981235197E-18
      5.27964979735236E-02
      0.00000000000000E+00   2.28546690927942E-10   0.00000000000000E+00   0.00000000000000E+00  -1.25946625072181E-09
      3.71555080748812E-34  -1.25946625072181E-09   5.91258813552783E-18   0.00000000000000E+00   0.00000000000000E+00
      0.00000000000000E+00   0.00000000000000E+00   0.00000000000000E+00   0.00000000000000E+00   0.00000000000000E+00
      1.99326177322164E-18   0.00000000000000E+00   0.00000000000000E+00   0.00000000000000E+00   0.00000000000000E+00
     -3.43385531381918E-18  -4.18004405713404E-34  -3.43385531381918E-18  -1.48317988987928E-17   4.54049882572303E-02
      4.54049880290680E-02   0.00000000000000E+00   0.00000000000000E+00   1.25946625415567E-09   4.64493249645916E-35
      1.25946625415567E-09   6.92594899004332E-18
      5.87175044510525E-02
      0.00000000000000E+00   2.32492512879251E-10   0.00000000000000E+00   0.00000000000000E+00  -1.28172087193141E-09
      3.61368779850094E-34  -1.28172087193141E-09   5.90773545254671E-18   0.00000000000000E+00   0.00000000000000E+00
      0.00000000000000E+00   0.00000000000000E+00   0.00000000000000E+00   0.00000000000000E+00   0.00000000000000E+00
      1.92717586719304E-18   0.00000000000000E+00   0.00000000000000E+00   0.00000000000000E+00   0.00000000000000E+00
     -6.92290645740614E-17  -4.10352272464417E-34  -6.92290645740614E-17  -1.48310826040292E-17   5.04970538279052E-02
      5.04970535958141E-02   0.00000000000000E+00   0.00000000000000E+00   1.28172094116047E-09   4.89834926143236E-35
      1.28172094116047E-09   6.99617128428945E-18
      6.51911381998174E-02
      0.00000000000000E+00   2.36775580193147E-10   0.00000000000000E+00   0.00000000000000E+00  -1.30591886283999E-09
      3.37836823040928E-34  -1.30591886283999E-09   5.90243092711761E-18   0.00000000000000E+00   0.00000000000000E+00
      0.00000000000000E+00   0.00000000000000E+00   0.00000000000000E+00   0.00000000000000E+00   0.00000000000000E+00
      1.85495230767152E-18   0.00000000000000E+00   0.00000000000000E+00   0.00000000000000E+00   0.00000000000000E+00
     -1.18937825984705E-16  -3.72273914999020E-34  -1.18937825984705E-16  -1.48303914980061E-17   5.60643788518430E-02
      5.60643786154910E-02   0.00000000000000E+00   0.00000000000000E+00   1.30591898177782E-09   3.44370919580918E-35
      1.30591898177782E-09   7.07300826321697E-18
      7.22689777651337E-02
      0.00000000000000E+00   2.41546938932349E-10   0.00000000000000E+00   0.00000000000000E+00  -1.33289192385802E-09
      3.39830579029192E-34  -1.33289192385802E-09   5.89663250832190E-18   0.00000000000000E+00   0.00000000000000E+00
      0.00000000000000E+00   0.00000000000000E+00   0.00000000000000E+00   0.00000000000000E+00   0.00000000000000E+00
      1.77602188853213E-18   0.00000000000000E+00   0.00000000000000E+00   0.00000000000000E+00   0.00000000000000E+00
      1.78490137391214E-19  -3.68279807931649E-34   1.78490137391213E-19  -1.48297400486831E-17   6.21513208780150E-02
      6.21513206369207E-02   0.00000000000000E+00   0.00000000000000E+00   1.33289192367953E-09   2.84492289024564E-35
      1.33289192367953E-09   7.15708565182908E-18
      7.99602300927774E-02
      0.00000000000000E+00   2.46875274623549E-10   0.00000000000000E+00   0.00000000000000E+00  -1.36303066745616E-09
      3.84161302157721E-34  -1.36303066745616E-09   5.89033287881441E-18   0.00000000000000E+00   0.00000000000000E+00
      0.00000000000000E+00   0.00000000000000E+00   0.00000000000000E+00   0.00000000000000E+00   0.00000000000000E+00
      1.69028852436507E-18   0.00000000000000E+00   0.00000000000000E+00   0.00000000000000E+00   0.00000000000000E+00
     -3.75744839283221E-19  -4.05702524070697E-34  -3.75744839283221E-19  -1.48291485857872E-17   6.87657978797886E-02
      6.87657976334024E-02   0.00000000000000E+00   0.00000000000000E+00   1.36303066783190E-09   2.15412219129756E-35
      1.36303066783190E-09   7.24852718260767E-18
      8.83180576221503E-02
      0.00000000000000E+00   2.52816763988254E-10   0.00000000000000E+00   0.00000000000000E+00  -1.39665716332737E-09
      3.53030212655919E-34  -1.39665716332737E-09   5.88348873754968E-18   0.00000000000000E+00   0.00000000000000E+00
      0.00000000000000E+00   0.00000000000000E+00   0.00000000000000E+00   0.00000000000000E+00   0.00000000000000E+00
      1.59716659972763E-18   0.00000000000000E+00   0.00000000000000E+00   0.00000000000000E+00   0.00000000000000E+00
      7.06003252503752E-19  -3.71574291709619E-34   7.06003252503751E-19  -1.48286353365345E-17   7.59535295550492E-02
      7.59535293027651E-02   0.00000000000000E+00   0.00000000000000E+00   1.39665716262136E-09   1.85440790537008E-35
      1.39665716262136E-09   7.34797999925719E-18
      9.74002302040688E-02
      0.00000000000000E+00   2.59403519530776E-10   0.00000000000000E+00   0.00000000000000E+00  -1.43395829999484E-09
      3.22633173232965E-34  -1.43395829999484E-09   5.87605305126773E-18   0.00000000000000E+00   0.00000000000000E+00
      0.00000000000000E+00   0.00000000000000E+00   0.00000000000000E+00   0.00000000000000E+00   0.00000000000000E+00
      1.49602022266808E-18   0.00000000000000E+00   0.00000000000000E+00   0.00000000000000E+00   0.00000000000000E+00
      9.58549253964747E-19  -3.35319719285348E-34   9.58549253964747E-19  -1.48282212295170E-17   8.37641979754991E-02
      8.37641977166764E-02   0.00000000000000E+00   0.00000000000000E+00   1.43395829903629E-09   1.26865460523835E-35
      1.43395829903629E-09   7.45614795558113E-18
      1.07269524409754E-01
      0.00000000000000E+00   2.66684183568011E-10   0.00000000000000E+00   0.00000000000000E+00  -1.47522272322552E-09
      2.91843862865675E-34  -1.47522272322552E-09   5.86797472661522E-18   0.00000000000000E+00   0.00000000000000E+00
      0.00000000000000E+00   0.00000000000000E+00   0.00000000000000E+00   0.00000000000000E+00   0.00000000000000E+00
      1.38615892373374E-18   0.00000000000000E+00   0.00000000000000E+00   0.00000000000000E+00   0.00000000000000E+00
     -3.14305420716047E-18  -3.00904863656556E-34  -3.14305420716047E-18  -1.48279301255247E-17   9.22517909923880E-02
      9.22517907263401E-02   0.00000000000000E+00   0.00000000000000E+00   1.47522272636857E-09   9.06100079088136E-36
      1.47522272636857E-09   7.57379647517572E-18
      1.17269524409753E-01
      0.00000000000000E+00   2.74200986696929E-10   0.00000000000000E+00   0.00000000000000E+00  -1.51786747988473E-09
      3.40105954274657E-34  -1.51786747988473E-09   5.85979119410214E-18   0.00000000000000E+00   0.00000000000000E+00
      0.00000000000000E+00   0.00000000000000E+00   0.00000000000000E+00   0.00000000000000E+00   0.00000000000000E+00
      1.27489367099701E-18   0.00000000000000E+00   0.00000000000000E+00   0.00000000000000E+00   0.00000000000000E+00
     -1.92734507436744E-18  -3.46607213784448E-34  -1.92734507436744E-18  -1.48277930256892E-17   1.00851790992388E-01
      1.00851790718886E-01   0.00000000000000E+00   0.00000000000000E+00   1.51786748181208E-09   6.50125950979053E-36
      1.51786748181208E-09   7.69310816058999E-18
      1.27269524409754E-01
      0.00000000000000E+00   2.81883084367481E-10   0.00000000000000E+00   0.00000000000000E+00  -1.56149224907428E-09
      3.37572931023103E-34  -1.56149224907428E-09   5.85160934509953E-18   0.00000000000000E+00   0.00000000000000E+00
      0.00000000000000E+00   0.00000000000000E+00   0.00000000000000E+00   0.00000000000000E+00   0.00000000000000E+00
      1.16367688512511E-18   0.00000000000000E+00   0.00000000000000E+00   0.00000000000000E+00   0.00000000000000E+00
     -1.51181672882035E-18  -3.42574264717882E-34  -1.51181672882035E-18  -1.48278045886323E-17   1.09451790992388E-01
      1.09451790711275E-01   0.00000000000000E+00   0.00000000000000E+00   1.56149225058610E-09   5.00133369477906E-36
      1.56149225058610E-09   7.81251835840757E-18
      1.37269524409754E-01
      0.00000000000000E+00   2.89751867442973E-10   0.00000000000000E+00   0.00000000000000E+00  -1.60621797501985E-09
      3.52312485506527E-34  -1.60621797501985E-09   5.84342909212916E-18   0.00000000000000E+00   0.00000000000000E+00
      0.00000000000000E+00   0.00000000000000E+00   0.00000000000000E+00   0.00000000000000E+00   0.00000000000000E+00
      1.05250613159255E-18   0.00000000000000E+00   0.00000000000000E+00   0.00000000000000E+00   0.00000000000000E+00
     -5.39056303175141E-19  -3.55879486748574E-34  -5.39056303175141E-19  -1.48279555629068E-17   1.18051790992388E-01
      1.18051790703482E-01   0.00000000000000E+00   0.00000000000000E+00   1.60621797555891E-09   3.56700124204658E-36
      1.60621797555891E-09   7.93202033918508E-18
      1.47269524409754E-01
      0.00000000000000E+00   2.97821369799251E-10   0.00000000000000E+00   0.00000000000000E+00  -1.65212388693045E-09
      3.91820181688354E-34  -1.65212388693045E-09   5.83525036160675E-18   0.00000000000000E+00   0.00000000000000E+00
      0.00000000000000E+00   0.00000000000000E+00   0.00000000000000E+00   0.00000000000000E+00   0.00000000000000E+00
      9.41379357322644E-19   0.00000000000000E+00   0.00000000000000E+00   0.00000000000000E+00   0.00000000000000E+00
     -4.47250192741518E-19  -3.94546596663637E-34  -4.47250192741518E-19  -1.48282375802607E-17   1.26651790992388E-01
      1.26651790695490E-01   0.00000000000000E+00   0.00000000000000E+00   1.65212388737770E-09   2.72641497528328E-36
      1.65212388737770E-09   8.05160786133130E-18
      1.57269524409754E-01
      0.00000000000000E+00   3.06099286681224E-10   0.00000000000000E+00   0.00000000000000E+00  -1.69925412895580E-09
      3.40061390605990E-34  -1.69925412895580E-09   5.82707308914866E-18   0.00000000000000E+00   0.00000000000000E+00
      0.00000000000000E+00   0.00000000000000E+00   0.00000000000000E+00   0.00000000000000E+00   0.00000000000000E+00
      8.30294829797533E-19   0.00000000000000E+00   0.00000000000000E+00   0.00000000000000E+00   0.00000000000000E+00
      5.94529702915619E-19  -3.41890679712609E-34   5.94529702915618E-19  -1.48286430330301E-17   1.35251790992388E-01
      1.35251790687288E-01   0.00000000000000E+00   0.00000000000000E+00   1.69925412836128E-09   1.82928910661920E-36
      1.69925412836128E-09   8.17127511408394E-18
      1.67269524409754E-01
      0.00000000000000E+00   3.14589427181358E-10   0.00000000000000E+00   0.00000000000000E+00  -1.74763130036870E-09
      3.49718114908596E-34  -1.74763130036870E-09   5.81889721853662E-18   0.00000000000000E+00   0.00000000000000E+00
      0.00000000000000E+00   0.00000000000000E+00   0.00000000000000E+00   0.00000000000000E+00   0.00000000000000E+00
      7.19251092521249E-19   0.00000000000000E+00   0.00000000000000E+00   0.00000000000000E+00   0.00000000000000E+00
     -1.81546134039244E-19  -3.51053677920552E-34  -1.81546134039244E-19  -1.48291649840906E-17   1.43851790992388E-01
      1.43851790678872E-01   0.00000000000000E+00   0.00000000000000E+00   1.74763130055025E-09   1.33556301195585E-36
      1.74763130055025E-09   8.29101667303280E-18
      1.77269524409754E-01
      0.00000000000000E+00   3.23293610721496E-10   0.00000000000000E+00   0.00000000000000E+00  -1.79726732174515E-09
      3.45041410322440E-34  -1.79726732174515E-09   5.81072270079829E-18   0.00000000000000E+00   0.00000000000000E+00
      0.00000000000000E+00   0.00000000000000E+00   0.00000000000000E+00   0.00000000000000E+00   0.00000000000000E+00
      6.08246916916446E-19   0.00000000000000E+00   0.00000000000000E+00   0.00000000000000E+00   0.00000000000000E+00
     -6.34279573513252E-19  -3.46022875659262E-34  -6.34279573513252E-19  -1.48297970788022E-17   1.52451790992388E-01
      1.52451790670244E-01   0.00000000000000E+00   0.00000000000000E+00   1.79726732237943E-09   9.81465336821411E-37
      1.79726732237943E-09   8.41082746108750E-18
      1.87269524409754E-01
      0.00000000000000E+00   3.32213391493801E-10   0.00000000000000E+00   0.00000000000000E+00  -1.84817309316023E-09