DF-ISE text

Info {
  version   = 1.0
  type      = xyplot
  datasets  = [
    "time"
    "source OuterVoltage" "source InnerVoltage" "source QuasiFermiPotential" "source DisplacementCurrent" "source eCurrent"
    "source hCurrent" "source TotalCurrent" "source Charge" "gate OuterVoltage" "gate InnerVoltage"
    "gate QuasiFermiPotential" "gate DisplacementCurrent" "gate eCurrent" "gate hCurrent" "gate TotalCurrent"
    "gate Charge" "substrate OuterVoltage" "substrate InnerVoltage" "substrate QuasiFermiPotential" "substrate DisplacementCurrent"
    "substrate eCurrent" "substrate hCurrent" "substrate TotalCurrent" "substrate Charge" "drain OuterVoltage"
    "drain InnerVoltage" "drain QuasiFermiPotential" "drain DisplacementCurrent" "drain eCurrent" "drain hCurrent"
    "drain TotalCurrent" "drain Charge" ]
  functions = [
    Time
    OuterVoltage InnerVoltage QuasiFermiPotential DisplacementCurrent eCurrent
    hCurrent TotalCurrent Charge OuterVoltage InnerVoltage
    QuasiFermiPotential DisplacementCurrent eCurrent hCurrent TotalCurrent
    Charge OuterVoltage InnerVoltage QuasiFermiPotential DisplacementCurrent
    eCurrent hCurrent TotalCurrent Charge OuterVoltage
    InnerVoltage QuasiFermiPotential DisplacementCurrent eCurrent hCurrent
    TotalCurrent Charge ]
}

Data {
      0.00000000000000E+00
      0.00000000000000E+00   0.00000000000000E+00   0.00000000000000E+00   0.00000000000000E+00  -4.09553495096852E-19
      1.07175658181721E-33  -4.09553495096851E-19   7.39351679996294E-18   0.00000000000000E+00   0.00000000000000E+00
      0.00000000000000E+00   0.00000000000000E+00   0.00000000000000E+00   0.00000000000000E+00   0.00000000000000E+00
      3.94435608352614E-18   0.00000000000000E+00   0.00000000000000E+00   0.00000000000000E+00   0.00000000000000E+00
      4.09797940385105E-19  -1.71590152898545E-33   4.09797940385103E-19  -1.68916150753583E-17   0.00000000000000E+00
      0.00000000000000E+00   0.00000000000000E+00   0.00000000000000E+00  -2.44445288252865E-22   6.44144947168246E-34
     -2.44445288252221E-22   5.55374219186931E-18
      0.00000000000000E+00
      0.00000000000000E+00   5.52769251711967E-18   0.00000000000000E+00   0.00000000000000E+00  -1.10444122849043E-16
      1.08215716675225E-33  -1.10444122849043E-16   7.38816657273761E-18   0.00000000000000E+00   0.00000000000000E+00
      0.00000000000000E+00   0.00000000000000E+00   0.00000000000000E+00   0.00000000000000E+00   0.00000000000000E+00
      3.93478548001934E-18   0.00000000000000E+00   0.00000000000000E+00   0.00000000000000E+00   0.00000000000000E+00
      1.10776210143231E-16  -1.72116646422891E-33   1.10776210143231E-16  -1.68723286922012E-17   0.00000000000000E+00
      0.00000000000000E+00   0.00000000000000E+00   0.00000000000000E+00  -3.32087294188425E-19   6.39009297476660E-34
     -3.32087294188424E-19   5.54937663944433E-18
      1.00000000000000E-03
      0.00000000000000E+00   1.38137712082136E-11   0.00000000000000E+00   0.00000000000000E+00  -8.45029480026898E-11
      1.15462976936942E-33  -8.45029480026898E-11   7.38753945566351E-18   0.00000000000000E+00   0.00000000000000E+00
      0.00000000000000E+00   0.00000000000000E+00   0.00000000000000E+00   0.00000000000000E+00   0.00000000000000E+00
      3.92451915107766E-18   0.00000000000000E+00   0.00000000000000E+00   0.00000000000000E+00   0.00000000000000E+00
     -4.52797913043454E-18  -1.78062685413623E-33  -4.52797913043454E-18  -1.68722885601081E-17   8.60000000000000E-04
      8.59999986205834E-04   0.00000000000000E+00   0.00000000000000E+00   8.45029525306690E-11   6.25997084766806E-34
      8.45029525306690E-11   5.56022995336693E-18
      2.08666666666667E-03
      0.00000000000000E+00   2.79511050475026E-11   0.00000000000000E+00   0.00000000000000E+00  -1.70981359202902E-10
      1.11012755668593E-33  -1.70981359202902E-10   7.38685804464341E-18   0.00000000000000E+00   0.00000000000000E+00
      0.00000000000000E+00   0.00000000000000E+00   0.00000000000000E+00   0.00000000000000E+00   0.00000000000000E+00
      3.91336509030794E-18   0.00000000000000E+00   0.00000000000000E+00   0.00000000000000E+00   0.00000000000000E+00
      2.96437141722681E-16  -1.70634498661902E-33   2.96437141722681E-16  -1.68722500812846E-17   1.79453333333333E-03
      1.79453330542203E-03   0.00000000000000E+00   0.00000000000000E+00   1.70981062765760E-10   5.96217429933092E-34
      1.70981062765760E-10   5.57202694633325E-18
      3.28200000000000E-03
      0.00000000000000E+00   4.24677814630571E-11   0.00000000000000E+00   0.00000000000000E+00  -2.59773683204393E-10
      1.13687236310597E-33  -2.59773683204393E-10   7.38610855930960E-18   0.00000000000000E+00   0.00000000000000E+00
      0.00000000000000E+00   0.00000000000000E+00   0.00000000000000E+00   0.00000000000000E+00   0.00000000000000E+00
      3.90109801216727E-18   0.00000000000000E+00   0.00000000000000E+00   0.00000000000000E+00   0.00000000000000E+00
      4.38313817066204E-16  -1.70658542552765E-33   4.38313817066204E-16  -1.68722138507961E-17   2.82252000000000E-03
      2.82251995759319E-03   0.00000000000000E+00   0.00000000000000E+00   2.59773244890576E-10   5.69713062421675E-34
      2.59773244890576E-10   5.58500727931919E-18
      4.59686666666667E-03
      0.00000000000000E+00   5.72376066363684E-11   0.00000000000000E+00   0.00000000000000E+00  -3.50107359215699E-10
      1.09946178115922E-33  -3.50107359215699E-10   7.38528420496965E-18   0.00000000000000E+00   0.00000000000000E+00
      0.00000000000000E+00   0.00000000000000E+00   0.00000000000000E+00   0.00000000000000E+00   0.00000000000000E+00
      3.88760706807338E-18   0.00000000000000E+00   0.00000000000000E+00   0.00000000000000E+00   0.00000000000000E+00
      6.67657632176157E-16  -1.68517612924740E-33   6.67657632176157E-16  -1.68721812737921E-17   3.95330533333333E-03
      3.95330527617857E-03   0.00000000000000E+00   0.00000000000000E+00   3.50106691558067E-10   5.85714348088182E-34
      3.50106691558067E-10   5.59929000074906E-18
      6.04322000000000E-03
      0.00000000000000E+00   7.21177156535030E-11   0.00000000000000E+00   0.00000000000000E+00  -4.41107585964803E-10
      1.16423665013274E-33  -4.41107585964803E-10   7.38437750961864E-18   0.00000000000000E+00   0.00000000000000E+00
      0.00000000000000E+00   0.00000000000000E+00   0.00000000000000E+00   0.00000000000000E+00   0.00000000000000E+00
      3.87277040497983E-18   0.00000000000000E+00   0.00000000000000E+00   0.00000000000000E+00   0.00000000000000E+00
      9.46882263035945E-16  -1.71800130648185E-33   9.46882263035945E-16  -1.68721541130057E-17   5.19716920000000E-03
      5.19716912798750E-03   0.00000000000000E+00   0.00000000000000E+00   4.41106639082541E-10   5.53764656349111E-34
      4.41106639082541E-10   5.61500619840723E-18
      7.63420866666667E-03
      0.00000000000000E+00   8.69479840184535E-11   0.00000000000000E+00   0.00000000000000E+00  -5.31793478903341E-10
      1.09357195561491E-33  -5.31793478903341E-10   7.38338025652887E-18   0.00000000000000E+00   0.00000000000000E+00
      0.00000000000000E+00   0.00000000000000E+00   0.00000000000000E+00   0.00000000000000E+00   0.00000000000000E+00
      3.85645407743296E-18   0.00000000000000E+00   0.00000000000000E+00   0.00000000000000E+00   0.00000000000000E+00
      8.62914280696504E-19  -1.62516289784210E-33   8.62914280696503E-19  -1.68721345607927E-17   6.56541945333333E-03
      6.56541936651360E-03   0.00000000000000E+00   0.00000000000000E+00   5.31793478040427E-10   5.31590942227183E-34
      5.31793478040427E-10   5.63230022683093E-18
      9.37368960888889E-03
      0.00000000000000E+00   1.01470008689122E-10   0.00000000000000E+00   0.00000000000000E+00  -6.20587815606324E-10
      1.04240331250242E-33  -6.20587815606324E-10   7.38229005727371E-18   0.00000000000000E+00   0.00000000000000E+00
      0.00000000000000E+00   0.00000000000000E+00   0.00000000000000E+00   0.00000000000000E+00   0.00000000000000E+00
      3.83861958439785E-18   0.00000000000000E+00   0.00000000000000E+00   0.00000000000000E+00   0.00000000000000E+00
      1.09362606662131E-18  -1.51343462759768E-33   1.09362606662131E-18  -1.68721253410895E-17   8.06137306364445E-03
      8.06137296232525E-03   0.00000000000000E+00   0.00000000000000E+00   6.20587814512698E-10   4.71031315095258E-34
      6.20587814512698E-10   5.65121569941797E-18
      1.12755221057185E-02
      0.00000000000000E+00   1.15514026999787E-10   0.00000000000000E+00   0.00000000000000E+00  -7.06452692361041E-10
      1.12492576990075E-33  -7.06452692361041E-10   7.38109825817828E-18   0.00000000000000E+00   0.00000000000000E+00
      0.00000000000000E+00   0.00000000000000E+00   0.00000000000000E+00   0.00000000000000E+00   0.00000000000000E+00
      3.81912601113525E-18   0.00000000000000E+00   0.00000000000000E+00   0.00000000000000E+00   0.00000000000000E+00
      1.94991976615633E-18  -1.60123416486041E-33   1.94991976615632E-18  -1.68721295101314E-17   9.69694901091793E-03
      9.69694889557685E-03   0.00000000000000E+00   0.00000000000000E+00   7.06452690411121E-10   4.76308394959667E-34
      7.06452690411121E-10   5.67190524081781E-18
      1.33548589689189E-02
      0.00000000000000E+00   1.28909428846942E-10   0.00000000000000E+00   0.00000000000000E+00  -7.88346886728532E-10
      1.11959035459496E-33  -7.88346886728532E-10   7.37979540080362E-18   0.00000000000000E+00   0.00000000000000E+00
      0.00000000000000E+00   0.00000000000000E+00   0.00000000000000E+00   0.00000000000000E+00   0.00000000000000E+00
      3.79781940610716E-18   0.00000000000000E+00   0.00000000000000E+00   0.00000000000000E+00   0.00000000000000E+00
      2.82008623306479E-19  -1.56463320962089E-33   2.82008623306477E-19  -1.68721507391267E-17   1.14851787132703E-02
      1.14851785845552E-02   0.00000000000000E+00   0.00000000000000E+00   7.88346886446523E-10   4.45042855025926E-34
      7.88346886446523E-10   5.69453593221587E-18
      1.56282672726847E-02
      0.00000000000000E+00   1.41491307430140E-10   0.00000000000000E+00   0.00000000000000E+00  -8.65265433327195E-10
      1.10891691129686E-33  -8.65265433327195E-10   7.37837114707750E-18   0.00000000000000E+00   0.00000000000000E+00
      0.00000000000000E+00   0.00000000000000E+00   0.00000000000000E+00   0.00000000000000E+00   0.00000000000000E+00
      3.77453157718437E-18   0.00000000000000E+00   0.00000000000000E+00   0.00000000000000E+00   0.00000000000000E+00
     -1.70540795157139E-19  -1.51351561578563E-33  -1.70540795157140E-19  -1.68721934152547E-17   1.34403098545088E-02
      1.34403097132322E-02   0.00000000000000E+00   0.00000000000000E+00   8.65265433497735E-10   4.04598704488766E-34
      8.65265433497735E-10   5.71929069099279E-18
      1.81138603514686E-02
      0.00000000000000E+00   1.53108896211597E-10   0.00000000000000E+00   0.00000000000000E+00  -9.36291121701092E-10
      1.07676372661360E-33  -9.36291121701092E-10   7.37681419739739E-18   0.00000000000000E+00   0.00000000000000E+00
      0.00000000000000E+00   0.00000000000000E+00   0.00000000000000E+00   0.00000000000000E+00   0.00000000000000E+00
      3.74907877504033E-18   0.00000000000000E+00   0.00000000000000E+00   0.00000000000000E+00   0.00000000000000E+00
     -2.27730773880294E-19  -1.47469149649944E-33  -2.27730773880296E-19  -1.68722627545407E-17   1.55779199022630E-02
      1.55779197493877E-02   0.00000000000000E+00   0.00000000000000E+00   9.36291121928822E-10   3.97927769885841E-34
      9.36291121928822E-10   5.74636978210297E-18
      2.08314421176057E-02
      0.00000000000000E+00   1.63634909866135E-10   0.00000000000000E+00   0.00000000000000E+00  -1.00065151298430E-09
      1.08991438564575E-33  -1.00065151298430E-09   7.37511220104944E-18   0.00000000000000E+00   0.00000000000000E+00
      0.00000000000000E+00   0.00000000000000E+00   0.00000000000000E+00   0.00000000000000E+00   0.00000000000000E+00
      3.72126025379792E-18   0.00000000000000E+00   0.00000000000000E+00   0.00000000000000E+00   0.00000000000000E+00
     -4.26175032640581E-18  -1.43415528840940E-33  -4.26175032640581E-18  -1.68723649284628E-17   1.79150402211409E-02
      1.79150400577567E-02   0.00000000000000E+00   0.00000000000000E+00   1.00065151724605E-09   3.44240902763650E-34
      1.00065151724605E-09   5.77599247361539E-18
      2.38026648485822E-02
      0.00000000000000E+00   1.72975857254591E-10   0.00000000000000E+00   0.00000000000000E+00  -1.05778211229121E-09
      1.06948354860169E-33  -1.05778211229121E-09   7.37325165817053E-18   0.00000000000000E+00   0.00000000000000E+00
      0.00000000000000E+00   0.00000000000000E+00   0.00000000000000E+00   0.00000000000000E+00   0.00000000000000E+00
      3.69085669560698E-18   0.00000000000000E+00   0.00000000000000E+00   0.00000000000000E+00   0.00000000000000E+00
     -5.18186130161764E-18  -1.38012504066451E-33  -5.18186130161765E-18  -1.68725072030187E-17   2.04702917697807E-02
      2.04702915970707E-02   0.00000000000000E+00   0.00000000000000E+00   1.05778211747307E-09   3.10641492062829E-34
      1.05778211747307E-09   5.80839884924109E-18
      2.70512017011165E-02
      0.00000000000000E+00   1.81082599316524E-10   0.00000000000000E+00   0.00000000000000E+00  -1.10739100133941E-09
      1.10462179856516E-33  -1.10739100133941E-09   7.37121781248001E-18   0.00000000000000E+00   0.00000000000000E+00
      0.00000000000000E+00   0.00000000000000E+00   0.00000000000000E+00   0.00000000000000E+00   0.00000000000000E+00
      3.65762848689692E-18   0.00000000000000E+00   0.00000000000000E+00   0.00000000000000E+00   0.00000000000000E+00
      5.34840685366064E-18  -1.40409876802133E-33   5.34840685366063E-18  -1.68726980923050E-17   2.32640334629602E-02
      2.32640332821565E-02   0.00000000000000E+00   0.00000000000000E+00   1.10739099599101E-09   2.99476969456169E-34
      1.10739099599101E-09   5.84385179292797E-18
      3.06029353265541E-02
      0.00000000000000E+00   1.87960343988698E-10   0.00000000000000E+00   0.00000000000000E+00  -1.14951941398146E-09
      1.09200280451409E-33  -1.14951941398146E-09   7.36899453386013E-18   0.00000000000000E+00   0.00000000000000E+00
      0.00000000000000E+00   0.00000000000000E+00   0.00000000000000E+00   0.00000000000000E+00   0.00000000000000E+00
      3.62131383045037E-18   0.00000000000000E+00   0.00000000000000E+00   0.00000000000000E+00   0.00000000000000E+00
     -7.83612974125977E-18  -1.35825629349561E-33  -7.83612974125977E-18  -1.68729475245457E-17   2.63185243808365E-02
      2.63185241931659E-02   0.00000000000000E+00   0.00000000000000E+00   1.14951942181759E-09   2.66253488981518E-34
      1.14951942181759E-09   5.88263916023518E-18
      3.44861640903658E-02
      0.00000000000000E+00   1.93676582695920E-10   0.00000000000000E+00   0.00000000000000E+00  -1.18459035697375E-09
      1.10596840108597E-33  -1.18459035697375E-09   7.36656418982466E-18   0.00000000000000E+00   0.00000000000000E+00
      0.00000000000000E+00   0.00000000000000E+00   0.00000000000000E+00   0.00000000000000E+00   0.00000000000000E+00
      3.58162667639338E-18   0.00000000000000E+00   0.00000000000000E+00   0.00000000000000E+00   0.00000000000000E+00
      1.40027833804224E-16  -1.34686110801592E-33   1.40027833804224E-16  -1.68732670193281E-17   2.96581011177146E-02
      2.96581009243365E-02   0.00000000000000E+00   0.00000000000000E+00   1.18459021694592E-09   2.40892706929948E-34
      1.18459021694592E-09   5.92507615311003E-18
      3.87318275388000E-02
      0.00000000000000E+00   1.98364954633311E-10   0.00000000000000E+00   0.00000000000000E+00  -1.21343053776753E-09
      1.09791445102192E-33  -1.21343053776753E-09   7.36390750482880E-18   0.00000000000000E+00   0.00000000000000E+00
      0.00000000000000E+00   0.00000000000000E+00   0.00000000000000E+00   0.00000000000000E+00   0.00000000000000E+00
      3.53825445284455E-18   0.00000000000000E+00   0.00000000000000E+00   0.00000000000000E+00   0.00000000000000E+00
     -3.23052794796391E-17  -1.29833115956931E-33  -3.23052794796391E-17  -1.68736698728742E-17   3.33093716833680E-02
      3.33093714853087E-02   0.00000000000000E+00   0.00000000000000E+00   1.21343057007281E-09   2.00416708547389E-34
      1.21343057007281E-09   5.97150791520086E-18
      4.33737529090880E-02
      0.00000000000000E+00   2.02221511746998E-10   0.00000000000000E+00   0.00000000000000E+00  -1.23724836699055E-09
      1.11678616490442E-33  -1.23724836699055E-09   7.36100340641432E-18   0.00000000000000E+00   0.00000000000000E+00
      0.00000000000000E+00   0.00000000000000E+00   0.00000000000000E+00   0.00000000000000E+00   0.00000000000000E+00
      3.49085557909453E-18   0.00000000000000E+00   0.00000000000000E+00   0.00000000000000E+00   0.00000000000000E+00
     -5.45055364092242E-17  -1.29670387861222E-33  -5.45055364092242E-17  -1.68741713533632E-17   3.73014275018156E-02
      3.73014272999064E-02   0.00000000000000E+00   0.00000000000000E+00   1.23724842149609E-09   1.79917713707802E-34
      1.23724842149609E-09   6.02231236785437E-18
      4.84489246472695E-02
      0.00000000000000E+00   2.05490679670739E-10   0.00000000000000E+00   0.00000000000000E+00  -1.25754512407784E-09
      1.05719528798554E-33  -1.25754512407784E-09   7.35782885705335E-18   0.00000000000000E+00   0.00000000000000E+00
      0.00000000000000E+00   0.00000000000000E+00   0.00000000000000E+00   0.00000000000000E+00   0.00000000000000E+00
      3.43905673986163E-18   0.00000000000000E+00   0.00000000000000E+00   0.00000000000000E+00   0.00000000000000E+00
     -7.70854327597825E-17  -1.21287419714866E-33  -7.70854327597825E-17  -1.68747889033719E-17   4.16660751966518E-02
      4.16660749914805E-02   0.00000000000000E+00   0.00000000000000E+00   1.25754520116328E-09   1.55678909163125E-34
      1.25754520116328E-09   6.07790330645698E-18
      5.39977790810147E-02
      0.00000000000000E+00   2.08441300281345E-10   0.00000000000000E+00   0.00000000000000E+00  -1.27596870530569E-09
      1.11460575755109E-33  -1.27596870530569E-09   7.35435867041920E-18   0.00000000000000E+00   0.00000000000000E+00
      0.00000000000000E+00   0.00000000000000E+00   0.00000000000000E+00   0.00000000000000E+00   0.00000000000000E+00
      3.38244989629696E-18   0.00000000000000E+00   0.00000000000000E+00   0.00000000000000E+00   0.00000000000000E+00
     -9.84947701174948E-17  -1.24572940699356E-33  -9.84947701174948E-17  -1.68755423439221E-17   4.64380900096726E-02
      4.64380898015598E-02   0.00000000000000E+00   0.00000000000000E+00   1.27596880380046E-09   1.31123649442470E-34
      1.27596880380046E-09   6.13873377720600E-18
      6.00645265952427E-02
      0.00000000000000E+00   2.11335614965558E-10   0.00000000000000E+00   0.00000000000000E+00  -1.29412583777649E-09
      1.15195371090528E-33  -1.29412583777649E-09   7.35056531115861E-18   0.00000000000000E+00   0.00000000000000E+00
      0.00000000000000E+00   0.00000000000000E+00   0.00000000000000E+00   0.00000000000000E+00   0.00000000000000E+00
      3.32058902437689E-18   0.00000000000000E+00   0.00000000000000E+00   0.00000000000000E+00   0.00000000000000E+00
     -1.32571066750972E-16  -1.26233514916715E-33  -1.32571066750972E-16  -1.68764540954102E-17   5.16554928719087E-02
      5.16554926609140E-02   0.00000000000000E+00   0.00000000000000E+00   1.29412597034756E-09   1.10381438261869E-34
      1.29412597034756E-09   6.20529975987465E-18
      6.66975038774654E-02
      0.00000000000000E+00   2.14392028807628E-10   0.00000000000000E+00   0.00000000000000E+00  -1.31335293073669E-09
      1.14480705712224E-33  -1.31335293073669E-09   7.34641867717347E-18   0.00000000000000E+00   0.00000000000000E+00
      0.00000000000000E+00   0.00000000000000E+00   0.00000000000000E+00   0.00000000000000E+00   0.00000000000000E+00
      3.25298656375743E-18   0.00000000000000E+00   0.00000000000000E+00   0.00000000000000E+00   0.00000000000000E+00
      5.49603012880931E-18  -1.23770534662314E-33   5.49603012880931E-18  -1.68775494238560E-17   5.73598533346202E-02
      5.73598531205860E-02   0.00000000000000E+00   0.00000000000000E+00   1.31335292524065E-09   9.28982895008961E-35
      1.31335292524065E-09   6.27814418292520E-18
      7.39053391908140E-02
      0.00000000000000E+00   2.17730628376248E-10   0.00000000000000E+00   0.00000000000000E+00  -1.33437975512712E-09
      1.09673784001910E-33  -1.33437975512712E-09   7.34191349812524E-18   0.00000000000000E+00   0.00000000000000E+00
      0.00000000000000E+00   0.00000000000000E+00   0.00000000000000E+00   0.00000000000000E+00   0.00000000000000E+00
      3.17955990649027E-18   0.00000000000000E+00   0.00000000000000E+00   0.00000000000000E+00   0.00000000000000E+00
     -3.19203373100664E-18  -1.16674325794710E-33  -3.19203373100664E-18  -1.68788483955081E-17   6.35585917041000E-02
      6.35585914867493E-02   0.00000000000000E+00   0.00000000000000E+00   1.33437975831916E-09   7.00054179280048E-35
      1.33437975831916E-09   6.35737499089256E-18
      8.17378535646528E-02
      0.00000000000000E+00   2.21418767754323E-10   0.00000000000000E+00   0.00000000000000E+00  -1.35761833397197E-09
      1.15968328227432E-33  -1.35761833397197E-09   7.33701875770737E-18   0.00000000000000E+00   0.00000000000000E+00
      0.00000000000000E+00   0.00000000000000E+00   0.00000000000000E+00   0.00000000000000E+00   0.00000000000000E+00
      3.09980680729876E-18   0.00000000000000E+00   0.00000000000000E+00   0.00000000000000E+00   0.00000000000000E+00
      6.15041342551926E-18  -1.21676931039262E-33   6.15041342551926E-18  -1.68803790669314E-17   7.02945540656014E-02
      7.02945538445914E-02   0.00000000000000E+00   0.00000000000000E+00   1.35761832782156E-09   5.70860281183088E-35
      1.35761832782156E-09   6.44355350192530E-18
      9.02491858508910E-02
      0.00000000000000E+00   2.25497961613487E-10   0.00000000000000E+00   0.00000000000000E+00  -1.38333210709519E-09
      1.12716720919652E-33  -1.38333210709519E-09   7.33170075211412E-18   0.00000000000000E+00   0.00000000000000E+00
      0.00000000000000E+00   0.00000000000000E+00   0.00000000000000E+00   0.00000000000000E+00   0.00000000000000E+00
      3.01318150675921E-18   0.00000000000000E+00   0.00000000000000E+00   0.00000000000000E+00   0.00000000000000E+00
      1.08503135198514E-20  -1.17243267766394E-33   1.08503135198502E-20  -1.68821723334922E-17   7.76142998317663E-02
      7.76142996067136E-02   0.00000000000000E+00   0.00000000000000E+00   1.38333210708434E-09   4.52654684674201E-35
      1.38333210708434E-09   6.53729007461880E-18
      9.94981669352699E-02
      0.00000000000000E+00   2.30000049462637E-10   0.00000000000000E+00   0.00000000000000E+00  -1.41172743567445E-09
      1.15147517855900E-33  -1.41172743567445E-09   7.32592285982085E-18   0.00000000000000E+00   0.00000000000000E+00
      0.00000000000000E+00   0.00000000000000E+00   0.00000000000000E+00   0.00000000000000E+00   0.00000000000000E+00
      2.91909097819206E-18   0.00000000000000E+00   0.00000000000000E+00   0.00000000000000E+00   0.00000000000000E+00
      3.87303002923874E-19  -1.18557515857935E-33   3.87303002923872E-19  -1.68842621194291E-17   8.55684235643321E-02
      8.55684233348177E-02   0.00000000000000E+00   0.00000000000000E+00   1.41172743528714E-09   3.40999800203475E-35
      1.41172743528714E-09   6.63924828141621E-18
      1.09498166935270E-01
      0.00000000000000E+00   2.34925042782366E-10   0.00000000000000E+00   0.00000000000000E+00  -1.44281371309238E-09
      1.07832159712136E-33  -1.44281371309238E-09   7.31967686507349E-18   0.00000000000000E+00   0.00000000000000E+00
      0.00000000000000E+00   0.00000000000000E+00   0.00000000000000E+00   0.00000000000000E+00   0.00000000000000E+00
      2.81740486570842E-18   0.00000000000000E+00   0.00000000000000E+00   0.00000000000000E+00   0.00000000000000E+00
      3.53636136493048E-18  -1.10307421917905E-33   3.53636136493048E-18  -1.68866729970671E-17   9.41684235643321E-02
      9.41684233299348E-02   0.00000000000000E+00   0.00000000000000E+00   1.44281370955602E-09   2.47526220576920E-35
      1.44281370955602E-09   6.74959126628518E-18
      1.19498166935270E-01
      0.00000000000000E+00   2.39904916309027E-10   0.00000000000000E+00   0.00000000000000E+00  -1.47427607953431E-09
      1.11874043285668E-33  -1.47427607953431E-09   7.31343186039138E-18   0.00000000000000E+00   0.00000000000000E+00
      0.00000000000000E+00   0.00000000000000E+00   0.00000000000000E+00   0.00000000000000E+00   0.00000000000000E+00
      2.71576033624526E-18   0.00000000000000E+00   0.00000000000000E+00   0.00000000000000E+00   0.00000000000000E+00
      7.30915431458807E-18  -1.13822270633553E-33   7.30915431458807E-18  -1.68892274780187E-17   1.02768423564332E-01
      1.02768423325000E-01   0.00000000000000E+00   0.00000000000000E+00   1.47427607222515E-09   1.94822734788476E-35
      1.47427607222515E-09   6.86003528138191E-18
      1.29498166935270E-01
      0.00000000000000E+00   2.44951265440691E-10   0.00000000000000E+00   0.00000000000000E+00  -1.50618799031548E-09
      1.13042296372641E-33  -1.50618799031548E-09   7.30718773834004E-18   0.00000000000000E+00   0.00000000000000E+00
      0.00000000000000E+00   0.00000000000000E+00   0.00000000000000E+00   0.00000000000000E+00   0.00000000000000E+00
      2.61415310246639E-18   0.00000000000000E+00   0.00000000000000E+00   0.00000000000000E+00   0.00000000000000E+00
      1.12774675584480E-18  -1.14363950083657E-33   1.12774675584480E-18  -1.68919128909978E-17   1.11368423564332E-01
      1.11368423320005E-01   0.00000000000000E+00   0.00000000000000E+00   1.50618798918773E-09   1.32165371101638E-35
      1.50618798918773E-09   6.97057205019138E-18
      1.39498166935270E-01
      0.00000000000000E+00   2.50075401111870E-10   0.00000000000000E+00   0.00000000000000E+00  -1.53861974192050E-09
      1.13129429724537E-33  -1.53861974192050E-09   7.30094440510697E-18   0.00000000000000E+00   0.00000000000000E+00
      0.00000000000000E+00   0.00000000000000E+00   0.00000000000000E+00   0.00000000000000E+00   0.00000000000000E+00
      2.51257942178535E-18   0.00000000000000E+00   0.00000000000000E+00   0.00000000000000E+00   0.00000000000000E+00
     -4.56250224031947E-19  -1.14142213987305E-33  -4.56250224031948E-19  -1.68947178630780E-17   1.19968423564332E-01
      1.19968423314938E-01   0.00000000000000E+00   0.00000000000000E+00   1.53861974237675E-09   1.01278426276823E-35
      1.53861974237675E-09   7.08119403618563E-18
      1.49498166935270E-01
      0.00000000000000E+00   2.55283851952634E-10   0.00000000000000E+00   0.00000000000000E+00  -1.57161167582503E-09
      1.05924375366728E-33  -1.57161167582503E-09   7.29470178083188E-18   0.00000000000000E+00   0.00000000000000E+00
      0.00000000000000E+00   0.00000000000000E+00   0.00000000000000E+00   0.00000000000000E+00   0.00000000000000E+00
      2.41103605398144E-18   0.00000000000000E+00   0.00000000000000E+00   0.00000000000000E+00   0.00000000000000E+00
      6.73150180594695E-18  -1.06688929641492E-33   6.73150180594695E-18  -1.68976322073304E-17   1.28568423564332E-01
      1.28568423309787E-01   0.00000000000000E+00   0.00000000000000E+00   1.57161166909353E-09   7.64554274763212E-36
      1.57161166909353E-09   7.19189437251694E-18
      1.59498166935270E-01
      0.00000000000000E+00   2.60579615673156E-10   0.00000000000000E+00   0.00000000000000E+00  -1.60518225755372E-09
      1.12268211246129E-33  -1.60518225755372E-09   7.28845979566972E-18   0.00000000000000E+00   0.00000000000000E+00
      0.00000000000000E+00   0.00000000000000E+00   0.00000000000000E+00   0.00000000000000E+00   0.00000000000000E+00
      2.30952018503278E-18   0.00000000000000E+00   0.00000000000000E+00   0.00000000000000E+00   0.00000000000000E+00
      5.41538492734889E-18  -1.12846204406541E-33   5.41538492734889E-18  -1.69006467727897E-17   1.37168423564332E-01
      1.37168423304548E-01   0.00000000000000E+00   0.00000000000000E+00   1.60518225213833E-09   5.77993160412156E-36
      1.60518225213833E-09   7.30266679208720E-18
      1.69498166935270E-01
      0.00000000000000E+00   2.65963741684600E-10   0.00000000000000E+00   0.00000000000000E+00  -1.63933823436692E-09
      1.07896663638031E-33  -1.63933823436692E-09   7.28221838681176E-18   0.00000000000000E+00   0.00000000000000E+00
      0.00000000000000E+00   0.00000000000000E+00   0.00000000000000E+00   0.00000000000000E+00   0.00000000000000E+00
      2.20802934237623E-18   0.00000000000000E+00   0.00000000000000E+00   0.00000000000000E+00   0.00000000000000E+00
      4.31823338997717E-19  -1.08297953473728E-33   4.31823338997716E-19  -1.69037532908571E-17   1.45768423564332E-01
      1.45768423299217E-01   0.00000000000000E+00   0.00000000000000E+00   1.63933823393510E-09   4.01289835697283E-36
      1.63933823393510E-09   7.41350556166909E-18
      1.79498166935270E-01
      0.00000000000000E+00   2.71436451945080E-10   0.00000000000000E+00   0.00000000000000E+00  -1.67408160758602E-09
      1.13399489432463E-33  -1.67408160758602E-09   7.27597749749610E-18   0.00000000000000E+00   0.00000000000000E+00
      0.00000000000000E+00   0.00000000000000E+00   0.00000000000000E+00   0.00000000000000E+00   0.00000000000000E+00
      2.10656133539670E-18   0.00000000000000E+00   0.00000000000000E+00   0.00000000000000E+00   0.00000000000000E+00
      2.23809922865432E-19  -1.13695925954313E-33   2.23809922865430E-19  -1.69069442613256E-17   1.54368423564332E-01
      1.54368423293796E-01   0.00000000000000E+00   0.00000000000000E+00   1.67408160736221E-09   2.96436521849383E-36
      1.67408160736221E-09   7.52440542843280E-18
      1.89498166935270E-01
      0.00000000000000E+00   2.76997858284069E-10   0.00000000000000E+00   0.00000000000000E+00  -1.70941412615070E-09