DF-ISE text

Info {
  version   = 1.0
  type      = xyplot
  datasets  = [
    "time"
    "source OuterVoltage" "source InnerVoltage" "source QuasiFermiPotential" "source DisplacementCurrent" "source eCurrent"
    "source hCurrent" "source TotalCurrent" "source Charge" "gate OuterVoltage" "gate InnerVoltage"
    "gate QuasiFermiPotential" "gate DisplacementCurrent" "gate eCurrent" "gate hCurrent" "gate TotalCurrent"
    "gate Charge" "substrate OuterVoltage" "substrate InnerVoltage" "substrate QuasiFermiPotential" "substrate DisplacementCurrent"
    "substrate eCurrent" "substrate hCurrent" "substrate TotalCurrent" "substrate Charge" "drain OuterVoltage"
    "drain InnerVoltage" "drain QuasiFermiPotential" "drain DisplacementCurrent" "drain eCurrent" "drain hCurrent"
    "drain TotalCurrent" "drain Charge" ]
  functions = [
    Time
    OuterVoltage InnerVoltage QuasiFermiPotential DisplacementCurrent eCurrent
    hCurrent TotalCurrent Charge OuterVoltage InnerVoltage
    QuasiFermiPotential DisplacementCurrent eCurrent hCurrent TotalCurrent
    Charge OuterVoltage InnerVoltage QuasiFermiPotential DisplacementCurrent
    eCurrent hCurrent TotalCurrent Charge OuterVoltage
    InnerVoltage QuasiFermiPotential DisplacementCurrent eCurrent hCurrent
    TotalCurrent Charge ]
}

Data {
      0.00000000000000E+00
      0.00000000000000E+00   0.00000000000000E+00   0.00000000000000E+00   0.00000000000000E+00  -2.01925781041960E-20
      7.81670088262416E-34  -2.01925781041952E-20   6.23202749492942E-18   0.00000000000000E+00   0.00000000000000E+00
      0.00000000000000E+00   0.00000000000000E+00   0.00000000000000E+00   0.00000000000000E+00   0.00000000000000E+00
      3.89835885668966E-18   0.00000000000000E+00   0.00000000000000E+00   0.00000000000000E+00   0.00000000000000E+00
      2.02152199761558E-20  -1.61177378895212E-33   2.02152199761542E-20  -1.50084560214677E-17   0.00000000000000E+00
      0.00000000000000E+00   0.00000000000000E+00   0.00000000000000E+00  -2.26418719598146E-23   8.30103700689701E-34
     -2.26418719589845E-23   4.87806966984863E-18
      0.00000000000000E+00
      0.00000000000000E+00   2.78317385477354E-18   0.00000000000000E+00   0.00000000000000E+00  -2.49020335546710E-18
      7.54017747050227E-34  -2.49020335546710E-18   6.22768645260414E-18   0.00000000000000E+00   0.00000000000000E+00
      0.00000000000000E+00   0.00000000000000E+00   0.00000000000000E+00   0.00000000000000E+00   0.00000000000000E+00
      3.88921816642355E-18   0.00000000000000E+00   0.00000000000000E+00   0.00000000000000E+00   0.00000000000000E+00
      2.66486805882343E-18  -1.53683407914618E-33   2.66486805882343E-18  -1.49914154740317E-17   0.00000000000000E+00
      0.00000000000000E+00   0.00000000000000E+00   0.00000000000000E+00  -1.74664703356332E-19   7.82816332095949E-34
     -1.74664703356331E-19   4.87451085500393E-18
      1.00000000000000E-03
      0.00000000000000E+00   8.02849080969405E-12   0.00000000000000E+00   0.00000000000000E+00  -4.24993457797706E-11
      7.70237796036679E-34  -4.24993457797706E-11   6.22746039183763E-18   0.00000000000000E+00   0.00000000000000E+00
      0.00000000000000E+00   0.00000000000000E+00   0.00000000000000E+00   0.00000000000000E+00   0.00000000000000E+00
      3.88436901637140E-18   0.00000000000000E+00   0.00000000000000E+00   0.00000000000000E+00   0.00000000000000E+00
     -3.12882023592706E-20  -1.58376809230672E-33  -3.12882023592722E-20  -1.49913652367101E-17   4.30000000000000E-04
      4.29999991967314E-04   0.00000000000000E+00   0.00000000000000E+00   4.24993458110588E-11   8.13530296270046E-34
      4.24993458110588E-11   4.87953582850109E-18
      2.08666666666667E-03
      0.00000000000000E+00   1.65083581467422E-11   0.00000000000000E+00   0.00000000000000E+00  -8.73869247545948E-11
      7.45379996748269E-34  -8.73869247545948E-11   6.22721475096916E-18   0.00000000000000E+00   0.00000000000000E+00
      0.00000000000000E+00   0.00000000000000E+00   0.00000000000000E+00   0.00000000000000E+00   0.00000000000000E+00
      3.87910014653502E-18   0.00000000000000E+00   0.00000000000000E+00   0.00000000000000E+00   0.00000000000000E+00
      2.99610886540995E-17  -1.54327922136946E-33   2.99610886540995E-17  -1.49913119880729E-17   8.97266666666667E-04
      8.97266650149795E-04   0.00000000000000E+00   0.00000000000000E+00   8.73868947935062E-11   7.97899224621188E-34
      8.73868947935062E-11   4.88499709056872E-18
      3.28200000000000E-03
      0.00000000000000E+00   2.55380145747869E-11   0.00000000000000E+00   0.00000000000000E+00  -1.35183484109302E-10
      7.55375986543950E-34  -1.35183484109302E-10   6.22694456019094E-18   0.00000000000000E+00   0.00000000000000E+00
      0.00000000000000E+00   0.00000000000000E+00   0.00000000000000E+00   0.00000000000000E+00   0.00000000000000E+00
      3.87330503396387E-18   0.00000000000000E+00   0.00000000000000E+00   0.00000000000000E+00   0.00000000000000E+00
      4.19036870033115E-17  -1.54187817226599E-33   4.19036870033115E-17  -1.49912550193473E-17   1.41126000000000E-03
      1.41125997444895E-03   0.00000000000000E+00   0.00000000000000E+00   1.35183442205615E-10   7.86502185722043E-34
      1.35183442205615E-10   4.89100542519256E-18
      4.59686666666667E-03
      0.00000000000000E+00   3.51125923227563E-11   0.00000000000000E+00   0.00000000000000E+00  -1.85862702651614E-10
      7.83912790366641E-34  -1.85862702651614E-10   6.22664736737258E-18   0.00000000000000E+00   0.00000000000000E+00
      0.00000000000000E+00   0.00000000000000E+00   0.00000000000000E+00   0.00000000000000E+00   0.00000000000000E+00
      3.86693118283077E-18   0.00000000000000E+00   0.00000000000000E+00   0.00000000000000E+00   0.00000000000000E+00
      5.35174439135181E-17  -1.53249998536412E-33   5.35174439135181E-17  -1.49911942820004E-17   1.97665266666667E-03
      1.97665263153634E-03   0.00000000000000E+00   0.00000000000000E+00   1.85862649134170E-10   7.48587194997478E-34
      1.85862649134170E-10   4.89761573179708E-18
      6.04322000000000E-03
      0.00000000000000E+00   4.52191927714202E-11   0.00000000000000E+00   0.00000000000000E+00  -2.39355771176152E-10
      7.64622544478971E-34  -2.39355771176152E-10   6.22632047571123E-18   0.00000000000000E+00   0.00000000000000E+00
      0.00000000000000E+00   0.00000000000000E+00   0.00000000000000E+00   0.00000000000000E+00   0.00000000000000E+00
      3.85992087254355E-18   0.00000000000000E+00   0.00000000000000E+00   0.00000000000000E+00   0.00000000000000E+00
      8.30634808742589E-17  -1.51137859433183E-33   8.30634808742589E-17  -1.49911297862900E-17   2.59858460000000E-03
      2.59858455475822E-03   0.00000000000000E+00   0.00000000000000E+00   2.39355688112671E-10   7.46756049852862E-34
      2.39355688112671E-10   4.90488843803522E-18
      7.63420866666667E-03
      0.00000000000000E+00   5.58349173578886E-11   0.00000000000000E+00   0.00000000000000E+00  -2.95540980420874E-10
      7.76285201198604E-34  -2.95540980420874E-10   6.22596091936404E-18   0.00000000000000E+00   0.00000000000000E+00
      0.00000000000000E+00   0.00000000000000E+00   0.00000000000000E+00   0.00000000000000E+00   0.00000000000000E+00
      3.85221063980307E-18   0.00000000000000E+00   0.00000000000000E+00   0.00000000000000E+00   0.00000000000000E+00
      1.31006941584194E-16  -1.51192046751226E-33   1.31006941584194E-16  -1.49910616191471E-17   3.28270972666667E-03
      3.28270967080416E-03   0.00000000000000E+00   0.00000000000000E+00   2.95540849413933E-10   7.35635266313659E-34
      2.95540849413933E-10   4.91289005998005E-18
      9.38429620000000E-03
      0.00000000000000E+00   6.69251433994082E-11   0.00000000000000E+00   0.00000000000000E+00  -3.54234490741981E-10
      7.53486206758822E-34  -3.54234490741981E-10   6.22556543665738E-18   0.00000000000000E+00   0.00000000000000E+00
      0.00000000000000E+00   0.00000000000000E+00   0.00000000000000E+00   0.00000000000000E+00   0.00000000000000E+00
      3.84373070961618E-18   0.00000000000000E+00   0.00000000000000E+00   0.00000000000000E+00   0.00000000000000E+00
      1.97964429269273E-16  -1.46753454871259E-33   1.97964429269273E-16  -1.49909899659540E-17   4.03524736600000E-03
      4.03524729904219E-03   0.00000000000000E+00   0.00000000000000E+00   3.54234292777551E-10   7.14048341953769E-34
      3.54234292777551E-10   4.92169381968043E-18
      1.13093924866667E-02
      0.00000000000000E+00   7.84418551167740E-11   0.00000000000000E+00   0.00000000000000E+00  -4.15181642029468E-10
      7.50206707581728E-34  -4.15181642029468E-10   6.22513044063320E-18   0.00000000000000E+00   0.00000000000000E+00
      0.00000000000000E+00   0.00000000000000E+00   0.00000000000000E+00   0.00000000000000E+00   0.00000000000000E+00
      3.83440437028429E-18   0.00000000000000E+00   0.00000000000000E+00   0.00000000000000E+00   0.00000000000000E+00
      2.37923432276069E-16  -1.44530158706640E-33   2.37923432276069E-16  -1.49909151369591E-17   4.86303876926667E-03
      4.86303869078700E-03   0.00000000000000E+00   0.00000000000000E+00   4.15181404106035E-10   6.95094879484673E-34
      4.15181404106035E-10   4.93138032604153E-18
      1.34269984020000E-02
      0.00000000000000E+00   9.03223123495025E-11   0.00000000000000E+00   0.00000000000000E+00  -4.78049937143030E-10
      7.82981336882376E-34  -4.78049937143030E-10   6.22465198666477E-18   0.00000000000000E+00   0.00000000000000E+00
      0.00000000000000E+00   0.00000000000000E+00   0.00000000000000E+00   0.00000000000000E+00   0.00000000000000E+00
      3.82414728670256E-18   0.00000000000000E+00   0.00000000000000E+00   0.00000000000000E+00   0.00000000000000E+00
      3.90023197034484E-16  -1.45474698488057E-33   3.90023197034484E-16  -1.49908375989316E-17   5.77360931286000E-03
      5.77360922249472E-03   0.00000000000000E+00   0.00000000000000E+00   4.78049547119833E-10   6.71765647998199E-34
      4.78049547119833E-10   4.94203832556419E-18
      1.57563649088667E-02
      0.00000000000000E+00   1.02487937750152E-10   0.00000000000000E+00   0.00000000000000E+00  -5.42423028348383E-10
      7.75197057065848E-34  -5.42423028348383E-10   6.22412573685458E-18   0.00000000000000E+00   0.00000000000000E+00
      0.00000000000000E+00   0.00000000000000E+00   0.00000000000000E+00   0.00000000000000E+00   0.00000000000000E+00
      3.81286674613351E-18   0.00000000000000E+00   0.00000000000000E+00   0.00000000000000E+00   0.00000000000000E+00
      5.55923160687827E-16  -1.41721658989426E-33   5.55923160687827E-16  -1.49907580132509E-17   6.77523691081267E-03
      6.77523680827665E-03   0.00000000000000E+00   0.00000000000000E+00   5.42422472425222E-10   6.42019532828415E-34
      5.42422472425222E-10   4.95376553026266E-18
      1.83186680664200E-02
      0.00000000000000E+00   1.14843608002714E-10   0.00000000000000E+00   0.00000000000000E+00  -6.07797439851697E-10
      7.73665680919740E-34  -6.07797439851697E-10   6.22354692089111E-18   0.00000000000000E+00   0.00000000000000E+00
      0.00000000000000E+00   0.00000000000000E+00   0.00000000000000E+00   0.00000000000000E+00   0.00000000000000E+00
      3.80046082970537E-18   0.00000000000000E+00   0.00000000000000E+00   0.00000000000000E+00   0.00000000000000E+00
      7.85966738230292E-16  -1.39738448628891E-33   7.85966738230292E-16  -1.49906772813525E-17   7.87702726856060E-03
      7.87702715366389E-03   0.00000000000000E+00   0.00000000000000E+00   6.07796653884959E-10   6.23718805369170E-34
      6.07796653884959E-10   4.96666953075596E-18
      2.11372015397287E-02
      0.00000000000000E+00   1.27277811999660E-10   0.00000000000000E+00   0.00000000000000E+00  -6.73582931995493E-10
      7.75280192196755E-34  -6.73582931995493E-10   6.22291029300673E-18   0.00000000000000E+00   0.00000000000000E+00
      0.00000000000000E+00   0.00000000000000E+00   0.00000000000000E+00   0.00000000000000E+00   0.00000000000000E+00
      3.78681750217225E-18   0.00000000000000E+00   0.00000000000000E+00   0.00000000000000E+00   0.00000000000000E+00
      1.13015473525619E-15  -1.37942738747042E-33   1.13015473525619E-15  -1.49905965985215E-17   9.08899666208333E-03
      9.08899653474749E-03   0.00000000000000E+00   0.00000000000000E+00   6.73581801840757E-10   6.04147195273668E-34
      6.73581801840757E-10   4.98086880334250E-18
      2.42375883603682E-02
      0.00000000000000E+00   1.39663226958933E-10   0.00000000000000E+00   0.00000000000000E+00  -7.39105231236055E-10
      7.72401675221103E-34  -7.39105231236055E-10   6.22221008464891E-18   0.00000000000000E+00   0.00000000000000E+00
      0.00000000000000E+00   0.00000000000000E+00   0.00000000000000E+00   0.00000000000000E+00   0.00000000000000E+00
      3.77181361196238E-18   0.00000000000000E+00   0.00000000000000E+00   0.00000000000000E+00   0.00000000000000E+00
      5.24713834989428E-19  -1.33376440471963E-33   5.24713834989427E-19  -1.49905175174497E-17   1.04221629949583E-02
      1.04221628552326E-02   0.00000000000000E+00   0.00000000000000E+00   7.39105230711340E-10   5.61362729498522E-34
      7.39105230711340E-10   4.99649382083846E-18
      2.76273446176008E-02
      0.00000000000000E+00   1.51789912046455E-10   0.00000000000000E+00   0.00000000000000E+00  -8.03256042509587E-10
      7.52098574059875E-34  -8.03256042509587E-10   6.22144461959778E-18   0.00000000000000E+00   0.00000000000000E+00
      0.00000000000000E+00   0.00000000000000E+00   0.00000000000000E+00   0.00000000000000E+00   0.00000000000000E+00
      3.75541377731713E-18   0.00000000000000E+00   0.00000000000000E+00   0.00000000000000E+00   0.00000000000000E+00
     -4.18753924319319E-19  -1.30371401903593E-33  -4.18753924319320E-19  -1.49904424441943E-17   1.18797581855683E-02
      1.18797580337115E-02   0.00000000000000E+00   0.00000000000000E+00   8.03256042928341E-10   5.51615444976050E-34
      8.03256042928341E-10   5.01358404727931E-18
      3.13334781255084E-02
      0.00000000000000E+00   1.63520719412599E-10   0.00000000000000E+00   0.00000000000000E+00  -8.65310276804447E-10
      7.68231422974136E-34  -8.65310276804447E-10   6.22060782264068E-18   0.00000000000000E+00   0.00000000000000E+00
      0.00000000000000E+00   0.00000000000000E+00   0.00000000000000E+00   0.00000000000000E+00   0.00000000000000E+00
      3.73748844394751E-18   0.00000000000000E+00   0.00000000000000E+00   0.00000000000000E+00   0.00000000000000E+00
     -7.83258303456817E-19  -1.27651563047620E-33  -7.83258303456818E-19  -1.49903737157527E-17   1.34733955939686E-02
      1.34733954303767E-02   0.00000000000000E+00   0.00000000000000E+00   8.65310277587706E-10   5.08284207502061E-34
      8.65310277587706E-10   5.03227744916455E-18
      3.53855174274873E-02
      0.00000000000000E+00   1.74716872123307E-10   0.00000000000000E+00   0.00000000000000E+00  -9.24535709160472E-10
      7.79508491614602E-34  -9.24535709160472E-10   6.21969305360487E-18   0.00000000000000E+00   0.00000000000000E+00
      0.00000000000000E+00   0.00000000000000E+00   0.00000000000000E+00   0.00000000000000E+00   0.00000000000000E+00
      3.71789607385189E-18   0.00000000000000E+00   0.00000000000000E+00   0.00000000000000E+00   0.00000000000000E+00
     -4.85764642222673E-19  -1.25712328217981E-33  -4.85764642222674E-19  -1.49903141979306E-17   1.52157724938196E-02
      1.52157723190275E-02   0.00000000000000E+00   0.00000000000000E+00   9.24535709646237E-10   4.77614790565210E-34
      9.24535709646237E-10   5.05272507047379E-18
      3.98157470643177E-02
      0.00000000000000E+00   1.85243778210273E-10   0.00000000000000E+00   0.00000000000000E+00  -9.80222994754613E-10
      7.80034076453818E-34  -9.80222994754613E-10   6.21869305476266E-18   0.00000000000000E+00   0.00000000000000E+00
      0.00000000000000E+00   0.00000000000000E+00   0.00000000000000E+00   0.00000000000000E+00   0.00000000000000E+00
      3.69648203806174E-18   0.00000000000000E+00   0.00000000000000E+00   0.00000000000000E+00   0.00000000000000E+00
     -5.83536766437553E-19  -1.22840383677838E-33  -5.83536766437555E-19  -1.49902673750383E-17   1.71207712376566E-02
      1.71207710523339E-02   0.00000000000000E+00   0.00000000000000E+00   9.80222995338150E-10   4.48369760324561E-34
      9.80222995338150E-10   5.07509228221390E-18
      4.46594648005855E-02
      0.00000000000000E+00   1.94977976545161E-10   0.00000000000000E+00   0.00000000000000E+00  -1.03172256533946E-09
      7.82907962932048E-34  -1.03172256533946E-09   6.21759989332951E-18   0.00000000000000E+00   0.00000000000000E+00
      0.00000000000000E+00   0.00000000000000E+00   0.00000000000000E+00   0.00000000000000E+00   0.00000000000000E+00
      3.67307740705882E-18   0.00000000000000E+00   0.00000000000000E+00   0.00000000000000E+00   0.00000000000000E+00
      1.22976637415015E-18  -1.20893096336215E-33   1.22976637415015E-18  -1.49902374525079E-17   1.92035698642518E-02
      1.92035696691914E-02   0.00000000000000E+00   0.00000000000000E+00   1.03172256410969E-09   4.26023000430099E-34
      1.03172256410969E-09   5.09956015211960E-18
      4.99552628589051E-02
      0.00000000000000E+00   2.03815375498079E-10   0.00000000000000E+00   0.00000000000000E+00  -1.07848827339849E-09
      7.80399373224011E-34  -1.07848827339849E-09   6.21640489852941E-18   0.00000000000000E+00   0.00000000000000E+00
      0.00000000000000E+00   0.00000000000000E+00   0.00000000000000E+00   0.00000000000000E+00   0.00000000000000E+00
      3.64749762737616E-18   0.00000000000000E+00   0.00000000000000E+00   0.00000000000000E+00   0.00000000000000E+00
      8.73360158727969E-19  -1.16470649717457E-33   8.73360158727968E-19  -1.49902294710059E-17   2.14807630293292E-02
      2.14807628254282E-02   0.00000000000000E+00   0.00000000000000E+00   1.07848827252513E-09   3.84307123950557E-34
      1.07848827252513E-09   5.12632694510039E-18
      5.57453354026677E-02
      0.00000000000000E+00   2.11680460604411E-10   0.00000000000000E+00   0.00000000000000E+00  -1.12012599663644E-09
      8.01233386650572E-34  -1.12012599663644E-09   6.21509859271869E-18   0.00000000000000E+00   0.00000000000000E+00
      0.00000000000000E+00   0.00000000000000E+00   0.00000000000000E+00   0.00000000000000E+00   0.00000000000000E+00
      3.61954107314921E-18   0.00000000000000E+00   0.00000000000000E+00   0.00000000000000E+00   0.00000000000000E+00
     -9.83727897389600E-19  -1.15612213367522E-33  -9.83727897389601E-19  -1.49902494324123E-17   2.39704942231471E-02
      2.39704940113781E-02   0.00000000000000E+00   0.00000000000000E+00   1.12012599762017E-09   3.54888747024648E-34
      1.12012599762017E-09   5.15560976654441E-18
      6.20758147171816E-02
      0.00000000000000E+00   2.18535677571612E-10   0.00000000000000E+00   0.00000000000000E+00  -1.15644331261610E-09
      7.80589821666469E-34  -1.15644331261610E-09   6.21367061601329E-18   0.00000000000000E+00   0.00000000000000E+00
      0.00000000000000E+00   0.00000000000000E+00   0.00000000000000E+00   0.00000000000000E+00   0.00000000000000E+00
      3.58898746081845E-18   0.00000000000000E+00   0.00000000000000E+00   0.00000000000000E+00   0.00000000000000E+00
     -1.94371281322886E-18  -1.10871195561362E-33  -1.94371281322886E-18  -1.49903044388538E-17   2.66926003283881E-02
      2.66926001097613E-02   0.00000000000000E+00   0.00000000000000E+00   1.15644331455982E-09   3.28122133947155E-34
      1.15644331455982E-09   5.18764636202205E-18
      6.89971387677167E-02
      0.00000000000000E+00   2.24390343074159E-10   0.00000000000000E+00   0.00000000000000E+00  -1.18749635710572E-09
      7.45002654615452E-34  -1.18749635710572E-09   6.21210964378286E-18   0.00000000000000E+00   0.00000000000000E+00
      0.00000000000000E+00   0.00000000000000E+00   0.00000000000000E+00   0.00000000000000E+00   0.00000000000000E+00
      3.55559611224216E-18   0.00000000000000E+00   0.00000000000000E+00   0.00000000000000E+00   0.00000000000000E+00
     -2.42332457132622E-18  -1.04288375968497E-33  -2.42332457132622E-18  -1.49904028429408E-17   2.96687696701182E-02
      2.96687694456345E-02   0.00000000000000E+00   0.00000000000000E+00   1.18749635952904E-09   2.97881105069523E-34
      1.18749635952904E-09   5.22269708691579E-18
      7.65644530629685E-02
      0.00000000000000E+00   2.29307226959723E-10   0.00000000000000E+00   0.00000000000000E+00  -1.21362452063504E-09
      7.52885405487330E-34  -1.21362452063504E-09   6.21040329635119E-18   0.00000000000000E+00   0.00000000000000E+00
      0.00000000000000E+00   0.00000000000000E+00   0.00000000000000E+00   0.00000000000000E+00   0.00000000000000E+00
      3.51910405227871E-18   0.00000000000000E+00   0.00000000000000E+00   0.00000000000000E+00   0.00000000000000E+00
     -4.70605618833906E-18  -1.01066757571389E-33  -4.70605618833906E-18  -1.49905544100949E-17   3.29227148170764E-02
      3.29227145876744E-02   0.00000000000000E+00   0.00000000000000E+00   1.21362452534110E-09   2.57782170226561E-34
      1.21362452534110E-09   5.26104706146502E-18
      8.48380500257771E-02
      0.00000000000000E+00   2.33405217601998E-10   0.00000000000000E+00   0.00000000000000E+00  -1.23546366706061E-09
      7.55495095101484E-34  -1.23546366706061E-09   6.20853804017772E-18   0.00000000000000E+00   0.00000000000000E+00
      0.00000000000000E+00   0.00000000000000E+00   0.00000000000000E+00   0.00000000000000E+00   0.00000000000000E+00
      3.47922392214742E-18   0.00000000000000E+00   0.00000000000000E+00   0.00000000000000E+00   0.00000000000000E+00
     -8.12166591979745E-18  -9.80700478325975E-34  -8.12166591979745E-18  -1.49907704894166E-17   3.64803615110841E-02
      3.64803612775839E-02   0.00000000000000E+00   0.00000000000000E+00   1.23546367518227E-09   2.25205383224491E-34
      1.23546367518227E-09   5.30300852709152E-18
      9.38838493717811E-02
      0.00000000000000E+00   2.36855162911232E-10   0.00000000000000E+00   0.00000000000000E+00  -1.25392366551816E-09
      7.75028656201011E-34  -1.25392366551816E-09   6.20649907980633E-18   0.00000000000000E+00   0.00000000000000E+00
      0.00000000000000E+00   0.00000000000000E+00   0.00000000000000E+00   0.00000000000000E+00   0.00000000000000E+00
      3.43564169227521E-18   0.00000000000000E+00   0.00000000000000E+00   0.00000000000000E+00   0.00000000000000E+00
     -1.28099513795219E-17  -9.75474725540439E-34  -1.28099513795219E-17  -1.49910641939908E-17   4.03700552298659E-02
      4.03700549929171E-02   0.00000000000000E+00   0.00000000000000E+00   1.25392367832811E-09   2.00446069339428E-34
      1.25392367832811E-09   5.34892342190922E-18
      1.03773923323412E-01
      0.00000000000000E+00   2.39867272761640E-10   0.00000000000000E+00   0.00000000000000E+00  -1.27012094843663E-09
      7.65507551538129E-34  -1.27012094843663E-09   6.20427023978670E-18   0.00000000000000E+00   0.00000000000000E+00
      0.00000000000000E+00   0.00000000000000E+00   0.00000000000000E+00   0.00000000000000E+00   0.00000000000000E+00
      3.38801415577801E-18   0.00000000000000E+00   0.00000000000000E+00   0.00000000000000E+00   0.00000000000000E+00
     -2.11524435385132E-17  -9.40005725374599E-34  -2.11524435385132E-17  -1.49914505886832E-17   4.46227870290673E-02
      4.46227867891104E-02   0.00000000000000E+00   0.00000000000000E+00   1.27012096958908E-09   1.74498173836470E-34
      1.27012096958908E-09   5.39916619311846E-18
      1.13773923323412E-01
      0.00000000000000E+00   2.42470315429772E-10   0.00000000000000E+00   0.00000000000000E+00  -1.28418577598788E-09
      7.47371475045313E-34  -1.28418577598788E-09   6.20201703737559E-18   0.00000000000000E+00   0.00000000000000E+00
      0.00000000000000E+00   0.00000000000000E+00   0.00000000000000E+00   0.00000000000000E+00   0.00000000000000E+00
      3.33987933007783E-18   0.00000000000000E+00   0.00000000000000E+00   0.00000000000000E+00   0.00000000000000E+00
     -2.29886803145995E-17  -8.99069407228732E-34  -2.29886803145995E-17  -1.49919069810852E-17   4.89227870290673E-02
      4.89227867865142E-02   0.00000000000000E+00   0.00000000000000E+00   1.28418579897657E-09   1.51697932183419E-34
      1.28418579897657E-09   5.45001061363182E-18
      1.23773923323412E-01
      0.00000000000000E+00   2.44867287267073E-10   0.00000000000000E+00   0.00000000000000E+00  -1.29718256162343E-09
      7.68333810254272E-34  -1.29718256162343E-09   6.19976421251270E-18   0.00000000000000E+00   0.00000000000000E+00
      0.00000000000000E+00   0.00000000000000E+00   0.00000000000000E+00   0.00000000000000E+00   0.00000000000000E+00
      3.29176510540968E-18   0.00000000000000E+00   0.00000000000000E+00   0.00000000000000E+00   0.00000000000000E+00
     -1.85764827135067E-17  -8.99241690947621E-34  -1.85764827135067E-17  -1.49924259120960E-17   5.32227870290673E-02
      5.32227867841268E-02   0.00000000000000E+00   0.00000000000000E+00   1.29718258019991E-09   1.30907880693350E-34
      1.29718258019991E-09   5.50089659417366E-18
      1.33773923323412E-01
      0.00000000000000E+00   2.47192194383753E-10   0.00000000000000E+00   0.00000000000000E+00  -1.30981396795312E-09
      7.60188649262827E-34  -1.30981396795312E-09   6.19751173454665E-18   0.00000000000000E+00   0.00000000000000E+00
      0.00000000000000E+00   0.00000000000000E+00   0.00000000000000E+00   0.00000000000000E+00   0.00000000000000E+00
      3.24367001714692E-18   0.00000000000000E+00   0.00000000000000E+00   0.00000000000000E+00   0.00000000000000E+00
     -1.60120881179230E-17  -8.72235247719544E-34  -1.60120881179230E-17  -1.49930040820768E-17   5.75227870290673E-02
      5.75227867818141E-02   0.00000000000000E+00   0.00000000000000E+00   1.30981398396520E-09   1.12046598456717E-34
      1.30981398396520E-09   5.55182233038320E-18
      1.43773923323412E-01
      0.00000000000000E+00   2.49507922593060E-10   0.00000000000000E+00   0.00000000000000E+00  -1.32240737676802E-09
      7.96014779137920E-34  -1.32240737676802E-09   6.19525957695037E-18   0.00000000000000E+00   0.00000000000000E+00
      0.00000000000000E+00   0.00000000000000E+00   0.00000000000000E+00   0.00000000000000E+00   0.00000000000000E+00
      3.19559273559272E-18   0.00000000000000E+00   0.00000000000000E+00   0.00000000000000E+00   0.00000000000000E+00
     -2.54261943561897E-17  -8.94047096836615E-34  -2.54261943561897E-17  -1.49936384192873E-17   6.18227870290673E-02
      6.18227867795129E-02   0.00000000000000E+00   0.00000000000000E+00   1.32240740219421E-09   9.80323176986968E-35
      1.32240740219421E-09   5.60278610674413E-18
      1.53773923323412E-01
      0.00000000000000E+00   2.51839059380551E-10   0.00000000000000E+00   0.00000000000000E+00  -1.33508930603682E-09
      7.56445194686213E-34  -1.33508930603682E-09   6.19300771623623E-18   0.00000000000000E+00   0.00000000000000E+00
      0.00000000000000E+00   0.00000000000000E+00   0.00000000000000E+00   0.00000000000000E+00   0.00000000000000E+00
      3.14753205096208E-18   0.00000000000000E+00   0.00000000000000E+00   0.00000000000000E+00   0.00000000000000E+00
     -1.42032569081904E-17  -8.40696061562212E-34  -1.42032569081904E-17  -1.49943260590159E-17   6.61227870290673E-02
      6.61227867771989E-02   0.00000000000000E+00   0.00000000000000E+00   1.33508932024008E-09   8.42508668760000E-35
      1.33508932024008E-09   5.65378629181763E-18
      1.63773923323412E-01
      0.00000000000000E+00   2.54194424160310E-10   0.00000000000000E+00   0.00000000000000E+00  -1.34790602946862E-09
      7.62571815686515E-34  -1.34790602946862E-09   6.19075613125889E-18   0.00000000000000E+00   0.00000000000000E+00
      0.00000000000000E+00   0.00000000000000E+00   0.00000000000000E+00   0.00000000000000E+00   0.00000000000000E+00
      3.09948686099608E-18   0.00000000000000E+00   0.00000000000000E+00   0.00000000000000E+00   0.00000000000000E+00
     -1.05113458123021E-17  -8.34872638145118E-34  -1.05113458123021E-17  -1.49950643268142E-17   7.04227870290673E-02
      7.04227867748629E-02   0.00000000000000E+00   0.00000000000000E+00   1.34790603997996E-09   7.23008224586036E-35
      1.34790603997996E-09   5.70482133455924E-18
      1.73773923323412E-01
      0.00000000000000E+00   2.56576466589192E-10   0.00000000000000E+00   0.00000000000000E+00  -1.36087024062258E-09
      7.60637364570369E-34  -1.36087024062258E-09   6.18850480313284E-18   0.00000000000000E+00   0.00000000000000E+00
      0.00000000000000E+00   0.00000000000000E+00   0.00000000000000E+00   0.00000000000000E+00   0.00000000000000E+00
      3.05145616550826E-18   0.00000000000000E+00   0.00000000000000E+00   0.00000000000000E+00   0.00000000000000E+00
     -1.15936083542637E-17  -8.23468887061858E-34  -1.15936083542637E-17  -1.49958507296196E-17   7.47227870290673E-02
      7.47227867725018E-02   0.00000000000000E+00   0.00000000000000E+00   1.36087025221619E-09   6.28315224914889E-35
      1.36087025221619E-09   5.75588976097851E-18
      1.83773923323412E-01
      0.00000000000000E+00   2.58982742576690E-10   0.00000000000000E+00   0.00000000000000E+00  -1.37396853701295E-09
      7.82310754896512E-34  -1.37396853701295E-09   6.18625371524679E-18   0.00000000000000E+00   0.00000000000000E+00
      0.00000000000000E+00   0.00000000000000E+00   0.00000000000000E+00   0.00000000000000E+00   0.00000000000000E+00
      3.00343906495473E-18   0.00000000000000E+00   0.00000000000000E+00   0.00000000000000E+00   0.00000000000000E+00
     -1.10170085836631E-17  -8.33785675189344E-34  -1.10170085836631E-17  -1.49966829508239E-17   7.90227870290673E-02
      7.90227867701173E-02   0.00000000000000E+00   0.00000000000000E+00   1.37396854802996E-09   5.14749202928329E-35
      1.37396854802996E-09   5.80699017062235E-18
      1.93773923323412E-01
      0.00000000000000E+00   2.61407236292516E-10   0.00000000000000E+00   0.00000000000000E+00  -1.38716887987770E-09