DF-ISE text

Info {
  version   = 1.0
  type      = xyplot
  datasets  = [
    "time"
    "source OuterVoltage" "source InnerVoltage" "source QuasiFermiPotential" "source DisplacementCurrent" "source eCurrent"
    "source hCurrent" "source TotalCurrent" "source Charge" "gate OuterVoltage" "gate InnerVoltage"
    "gate QuasiFermiPotential" "gate DisplacementCurrent" "gate eCurrent" "gate hCurrent" "gate TotalCurrent"
    "gate Charge" "substrate OuterVoltage" "substrate InnerVoltage" "substrate QuasiFermiPotential" "substrate DisplacementCurrent"
    "substrate eCurrent" "substrate hCurrent" "substrate TotalCurrent" "substrate Charge" "drain OuterVoltage"
    "drain InnerVoltage" "drain QuasiFermiPotential" "drain DisplacementCurrent" "drain eCurrent" "drain hCurrent"
    "drain TotalCurrent" "drain Charge" ]
  functions = [
    Time
    OuterVoltage InnerVoltage QuasiFermiPotential DisplacementCurrent eCurrent
    hCurrent TotalCurrent Charge OuterVoltage InnerVoltage
    QuasiFermiPotential DisplacementCurrent eCurrent hCurrent TotalCurrent
    Charge OuterVoltage InnerVoltage QuasiFermiPotential DisplacementCurrent
    eCurrent hCurrent TotalCurrent Charge OuterVoltage
    InnerVoltage QuasiFermiPotential DisplacementCurrent eCurrent hCurrent
    TotalCurrent Charge ]
}

Data {
      0.00000000000000E+00
      0.00000000000000E+00   0.00000000000000E+00   0.00000000000000E+00   0.00000000000000E+00  -4.34918787389046E-20
      6.85410612079415E-34  -4.34918787389039E-20   6.21238123506763E-18   0.00000000000000E+00   0.00000000000000E+00
      0.00000000000000E+00   0.00000000000000E+00   0.00000000000000E+00   0.00000000000000E+00   0.00000000000000E+00
      3.53948792822582E-18   0.00000000000000E+00   0.00000000000000E+00   0.00000000000000E+00   0.00000000000000E+00
      4.33561143127085E-20  -1.45940588737531E-33   4.33561143127070E-20  -1.46110815191195E-17   0.00000000000000E+00
      0.00000000000000E+00   0.00000000000000E+00   0.00000000000000E+00   1.35764426196143E-22   7.73995275295893E-34
      1.35764426196917E-22   4.85921235582607E-18
      0.00000000000000E+00
      0.00000000000000E+00   1.77477753058023E-18   0.00000000000000E+00   0.00000000000000E+00  -5.54964863141230E-18
      6.92426744833364E-34  -5.54964863141229E-18   6.20726034255992E-18   0.00000000000000E+00   0.00000000000000E+00
      0.00000000000000E+00   0.00000000000000E+00   0.00000000000000E+00   0.00000000000000E+00   0.00000000000000E+00
      3.52966814958349E-18   0.00000000000000E+00   0.00000000000000E+00   0.00000000000000E+00   0.00000000000000E+00
      5.91485138294305E-18  -1.47099061641259E-33   5.91485138294305E-18  -1.45918980088032E-17   0.00000000000000E+00
     -4.43694382645057E-19   0.00000000000000E+00   0.00000000000000E+00  -3.65202751530759E-19   7.78563871579230E-34
     -3.65202751530758E-19   4.85496951665980E-18
      1.00000000000000E-03
      0.00000000000000E+00   1.06029513512374E-12   0.00000000000000E+00   0.00000000000000E+00  -5.85935022182377E-12
      6.87794535538250E-34  -5.85935022182377E-12   6.20723189315467E-18   0.00000000000000E+00   0.00000000000000E+00
      0.00000000000000E+00   0.00000000000000E+00   0.00000000000000E+00   0.00000000000000E+00   0.00000000000000E+00
      3.52911383755065E-18   0.00000000000000E+00   0.00000000000000E+00   0.00000000000000E+00   0.00000000000000E+00
      3.84243305614997E-19  -1.46590688366153E-33   3.84243305614996E-19  -1.45918927043288E-17   5.00000000000000E-05
      4.99999989391991E-05   0.00000000000000E+00   0.00000000000000E+00   5.85934983758046E-12   7.78112348123278E-34
      5.85934983758046E-12   4.85554697362352E-18
      2.09333333333333E-03
      0.00000000000000E+00   2.21607330139270E-12   0.00000000000000E+00   0.00000000000000E+00  -1.22463571602745E-11
      7.27292531332016E-34  -1.22463571602745E-11   6.20720078865771E-18   0.00000000000000E+00   0.00000000000000E+00
      0.00000000000000E+00   0.00000000000000E+00   0.00000000000000E+00   0.00000000000000E+00   0.00000000000000E+00
      3.52850779754692E-18   0.00000000000000E+00   0.00000000000000E+00   0.00000000000000E+00   0.00000000000000E+00
     -1.03742581004905E-18  -1.48454667632026E-33  -1.03742581004905E-18  -1.45918869241181E-17   1.04666666666667E-04
      1.04666664449541E-04   0.00000000000000E+00   0.00000000000000E+00   1.22463581977003E-11   7.57254144988244E-34
      1.22463581977003E-11   4.85617833791353E-18
      3.29600000000000E-03
      0.00000000000000E+00   3.48309141741776E-12   0.00000000000000E+00   0.00000000000000E+00  -1.92480420354244E-11
      6.95247544690545E-34  -1.92480420354244E-11   6.20716657393581E-18   0.00000000000000E+00   0.00000000000000E+00
      0.00000000000000E+00   0.00000000000000E+00   0.00000000000000E+00   0.00000000000000E+00   0.00000000000000E+00
      3.52784116296662E-18   0.00000000000000E+00   0.00000000000000E+00   0.00000000000000E+00   0.00000000000000E+00
     -9.04097731924968E-19  -1.45394585267079E-33  -9.04097731924970E-19  -1.45918805892099E-17   1.64800000000000E-04
      1.64799996515259E-04   0.00000000000000E+00   0.00000000000000E+00   1.92480429395221E-11   7.58698307980246E-34
      1.92480429395221E-11   4.85687285230748E-18
      4.61893333333333E-03
      0.00000000000000E+00   4.87144219932092E-12   0.00000000000000E+00   0.00000000000000E+00  -2.69202505718778E-11
      6.92566271221643E-34  -2.69202505718778E-11   6.20712893801414E-18   0.00000000000000E+00   0.00000000000000E+00
      0.00000000000000E+00   0.00000000000000E+00   0.00000000000000E+00   0.00000000000000E+00   0.00000000000000E+00
      3.52710787631933E-18   0.00000000000000E+00   0.00000000000000E+00   0.00000000000000E+00   0.00000000000000E+00
      4.61830005030545E-19  -1.44615446583562E-33   4.61830005030543E-19  -1.45918736490089E-17   2.30946666666667E-04
      2.30946661792922E-04   0.00000000000000E+00   0.00000000000000E+00   2.69202501100478E-11   7.53588194613976E-34
      2.69202501100478E-11   4.85763683467537E-18
      6.07416000000000E-03
      0.00000000000000E+00   6.39205517082990E-12   0.00000000000000E+00   0.00000000000000E+00  -3.53233189214634E-11
      7.18681399745076E-34  -3.53233189214634E-11   6.20708753883024E-18   0.00000000000000E+00   0.00000000000000E+00
      0.00000000000000E+00   0.00000000000000E+00   0.00000000000000E+00   0.00000000000000E+00   0.00000000000000E+00
      3.52630127477483E-18   0.00000000000000E+00   0.00000000000000E+00   0.00000000000000E+00   0.00000000000000E+00
      4.99550960515620E-19  -1.47989798820925E-33   4.99550960515618E-19  -1.45918660488763E-17   3.03708000000000E-04
      3.03707993604935E-04   0.00000000000000E+00   0.00000000000000E+00   3.53233184219124E-11   7.61216588464174E-34
      3.53233184219124E-11   4.85847723527121E-18
      7.67490933333333E-03
      0.00000000000000E+00   8.05668645830726E-12   0.00000000000000E+00   0.00000000000000E+00  -4.45222562557431E-11
      7.00505408765969E-34  -4.45222562557431E-11   6.20704200012726E-18   0.00000000000000E+00   0.00000000000000E+00
      0.00000000000000E+00   0.00000000000000E+00   0.00000000000000E+00   0.00000000000000E+00   0.00000000000000E+00
      3.52541402971380E-18   0.00000000000000E+00   0.00000000000000E+00   0.00000000000000E+00   0.00000000000000E+00
     -8.41713083938392E-19  -1.47687470821061E-33  -8.41713083938393E-19  -1.45918577299366E-17   3.83745466666667E-04
      3.83745458606192E-04   0.00000000000000E+00   0.00000000000000E+00   4.45222570974562E-11   7.76369299444646E-34
      4.45222570974562E-11   4.85940170009552E-18
      9.43573360000000E-03
      0.00000000000000E+00   9.87798401382467E-12   0.00000000000000E+00   0.00000000000000E+00  -5.45869132804397E-11
      7.03550402554694E-34  -5.45869132804397E-11   6.20699190803723E-18   0.00000000000000E+00   0.00000000000000E+00
      0.00000000000000E+00   0.00000000000000E+00   0.00000000000000E+00   0.00000000000000E+00   0.00000000000000E+00
      3.52443808025090E-18   0.00000000000000E+00   0.00000000000000E+00   0.00000000000000E+00   0.00000000000000E+00
     -1.17685275830406E-18  -1.46822735444679E-33  -1.17685275830406E-18  -1.45918486289080E-17   4.71786680000000E-04
      4.71786670117384E-04   0.00000000000000E+00   0.00000000000000E+00   5.45869144572925E-11   7.64676951892102E-34
      5.45869144572925E-11   4.86041864061983E-18
      1.13726402933333E-02
      0.00000000000000E+00   1.18694898336349E-11   0.00000000000000E+00   0.00000000000000E+00  -6.55921140727847E-11
      7.04221527225926E-34  -6.55921140727847E-11   6.20693680732265E-18   0.00000000000000E+00   0.00000000000000E+00
      0.00000000000000E+00   0.00000000000000E+00   0.00000000000000E+00   0.00000000000000E+00   0.00000000000000E+00
      3.52336456013093E-18   0.00000000000000E+00   0.00000000000000E+00   0.00000000000000E+00   0.00000000000000E+00
      7.95018529013495E-19  -1.45123618676848E-33   7.95018529013494E-19  -1.45918386779681E-17   5.68632014666667E-04
      5.68632002791623E-04   0.00000000000000E+00   0.00000000000000E+00   6.55921132777662E-11   7.47014659542558E-34
      6.55921132777662E-11   4.86153731051455E-18
      1.35032376560000E-02
      0.00000000000000E+00   1.40456590370300E-11   0.00000000000000E+00   0.00000000000000E+00  -7.76177363688565E-11
      7.04954981602269E-34  -7.76177363688565E-11   6.20687619724346E-18   0.00000000000000E+00   0.00000000000000E+00
      0.00000000000000E+00   0.00000000000000E+00   0.00000000000000E+00   0.00000000000000E+00   0.00000000000000E+00
      3.52218371734003E-18   0.00000000000000E+00   0.00000000000000E+00   0.00000000000000E+00   0.00000000000000E+00
      1.75407186935190E-19  -1.46193490258548E-33   1.75407186935188E-19  -1.45918278046703E-17   6.75161882800000E-04
      6.75161868747785E-04   0.00000000000000E+00   0.00000000000000E+00   7.76177361934492E-11   7.56979920983212E-34
      7.76177361934492E-11   4.86276789008677E-18
      1.58468947549333E-02
      0.00000000000000E+00   1.64218682965350E-11   0.00000000000000E+00   0.00000000000000E+00  -9.07487439568764E-11
      6.87025331438381E-34  -9.07487439568764E-11   6.20680952701089E-18   0.00000000000000E+00   0.00000000000000E+00
      0.00000000000000E+00   0.00000000000000E+00   0.00000000000000E+00   0.00000000000000E+00   0.00000000000000E+00
      3.52088482570780E-18   0.00000000000000E+00   0.00000000000000E+00   0.00000000000000E+00   0.00000000000000E+00
      2.98753148760901E-19  -1.45955661549999E-33   2.98753148760900E-19  -1.45918159319257E-17   7.92344737746667E-04
      7.92344721317153E-04   0.00000000000000E+00   0.00000000000000E+00   9.07487436581232E-11   7.72531284061613E-34
      9.07487436581232E-11   4.86412157920708E-18
      1.84249175637600E-02
      0.00000000000000E+00   1.90143998649099E-11   0.00000000000000E+00   0.00000000000000E+00  -1.05075101466366E-10
      7.05712993699425E-34  -1.05075101466366E-10   6.20673619078783E-18   0.00000000000000E+00   0.00000000000000E+00
      0.00000000000000E+00   0.00000000000000E+00   0.00000000000000E+00   0.00000000000000E+00   0.00000000000000E+00
      3.51945608770577E-18   0.00000000000000E+00   0.00000000000000E+00   0.00000000000000E+00   0.00000000000000E+00
     -1.39506436878606E-18  -1.47152905727110E-33  -1.39506436878606E-18  -1.45918029780763E-17   9.21245878188001E-04
      9.21245859164779E-04   0.00000000000000E+00   0.00000000000000E+00   1.05075102861430E-10   7.65816063571677E-34
      1.05075102861430E-10   4.86561069958273E-18
      2.12607426534693E-02
      0.00000000000000E+00   2.18404251584574E-11   0.00000000000000E+00   0.00000000000000E+00  -1.20691603248360E-10
      7.00506918619379E-34  -1.20691603248360E-10   6.20665552219036E-18   0.00000000000000E+00   0.00000000000000E+00
      0.00000000000000E+00   0.00000000000000E+00   0.00000000000000E+00   0.00000000000000E+00   0.00000000000000E+00
      3.51788452756923E-18   0.00000000000000E+00   0.00000000000000E+00   0.00000000000000E+00   0.00000000000000E+00
     -8.94709900361161E-19  -1.44900633599579E-33  -8.94709900361162E-19  -1.45917888570828E-17   1.06303713267347E-03
      1.06303711082295E-03   0.00000000000000E+00   0.00000000000000E+00   1.20691604143069E-10   7.48499417376409E-34
      1.20691604143069E-10   4.86724880732323E-18
      2.43801502521496E-02
      0.00000000000000E+00   2.49178951645105E-11   0.00000000000000E+00   0.00000000000000E+00  -1.37697535805557E-10
      6.90253598706027E-34  -1.37697535805557E-10   6.20656678824048E-18   0.00000000000000E+00   0.00000000000000E+00
      0.00000000000000E+00   0.00000000000000E+00   0.00000000000000E+00   0.00000000000000E+00   0.00000000000000E+00
      3.51615587378275E-18   0.00000000000000E+00   0.00000000000000E+00   0.00000000000000E+00   0.00000000000000E+00
      2.43997673610857E-19  -1.43680279716317E-33   2.43997673610855E-19  -1.45917734788638E-17   1.21900751260748E-03
      1.21900748767810E-03   0.00000000000000E+00   0.00000000000000E+00   1.37697535561559E-10   7.46549198457142E-34
      1.37697535561559E-10   4.86905081684059E-18
      2.78114986106979E-02
      0.00000000000000E+00   2.82655222499629E-11   0.00000000000000E+00   0.00000000000000E+00  -1.56196183066039E-10
      7.04816703941220E-34  -1.56196183066039E-10   6.20646918271582E-18   0.00000000000000E+00   0.00000000000000E+00
      0.00000000000000E+00   0.00000000000000E+00   0.00000000000000E+00   0.00000000000000E+00   0.00000000000000E+00
      3.51425442987642E-18   0.00000000000000E+00   0.00000000000000E+00   0.00000000000000E+00   0.00000000000000E+00
     -7.19298144959343E-19  -1.43697942413428E-33  -7.19298144959344E-19  -1.45917567498255E-17   1.39057493053490E-03
      1.39057490225640E-03   0.00000000000000E+00   0.00000000000000E+00   1.56196183785337E-10   7.32162720193056E-34
      1.56196183785337E-10   4.87103313723325E-18
      3.15859818051010E-02
      0.00000000000000E+00   3.19025946970169E-11   0.00000000000000E+00   0.00000000000000E+00  -1.76294119802765E-10
      7.05873149994353E-34  -1.76294119802765E-10   6.20636181883589E-18   0.00000000000000E+00   0.00000000000000E+00
      0.00000000000000E+00   0.00000000000000E+00   0.00000000000000E+00   0.00000000000000E+00   0.00000000000000E+00
      3.51216293237682E-18   0.00000000000000E+00   0.00000000000000E+00   0.00000000000000E+00   0.00000000000000E+00
     -6.42451164666659E-19  -1.42473434251235E-33  -6.42451164666660E-19  -1.45917385736345E-17   1.57929909025505E-03
      1.57929905833788E-03   0.00000000000000E+00   0.00000000000000E+00   1.76294120445216E-10   7.18861192518001E-34
      1.76294120445216E-10   4.87321382242178E-18
      3.57379133189445E-02
      0.00000000000000E+00   3.58488214101497E-11   0.00000000000000E+00   0.00000000000000E+00  -1.98100239433791E-10
      7.18159896508932E-34  -1.98100239433791E-10   6.20624372121927E-18   0.00000000000000E+00   0.00000000000000E+00
      0.00000000000000E+00   0.00000000000000E+00   0.00000000000000E+00   0.00000000000000E+00   0.00000000000000E+00
      3.50986239463804E-18   0.00000000000000E+00   0.00000000000000E+00   0.00000000000000E+00   0.00000000000000E+00
      9.91870276566081E-19  -1.43491090392762E-33   9.91870276566079E-19  -1.45917188522883E-17   1.78689566594722E-03
      1.78689563008209E-03   0.00000000000000E+00   0.00000000000000E+00   1.98100238441921E-10   7.16751007418689E-34
      1.98100238441921E-10   4.87561273643100E-18
      4.03050379841723E-02
      0.00000000000000E+00   4.01241260419195E-11   0.00000000000000E+00   0.00000000000000E+00  -2.21724483339650E-10
      7.09717105986472E-34  -2.21724483339650E-10   6.20611381703906E-18   0.00000000000000E+00   0.00000000000000E+00
      0.00000000000000E+00   0.00000000000000E+00   0.00000000000000E+00   0.00000000000000E+00   0.00000000000000E+00
      3.50733193516584E-18   0.00000000000000E+00   0.00000000000000E+00   0.00000000000000E+00   0.00000000000000E+00
      1.26641289866178E-18  -1.44656948774219E-33   1.26641289866177E-18  -1.45916974875700E-17   2.01525189920861E-03
      2.01525185906633E-03   0.00000000000000E+00   0.00000000000000E+00   2.21724482073237E-10   7.36852381755723E-34
      2.21724482073237E-10   4.87825173536510E-18
      4.53288751159228E-02
      0.00000000000000E+00   4.47482986928755E-11   0.00000000000000E+00   0.00000000000000E+00  -2.47276228087300E-10
      7.27256645791640E-34  -2.47276228087300E-10   6.20597092629658E-18   0.00000000000000E+00   0.00000000000000E+00
      0.00000000000000E+00   0.00000000000000E+00   0.00000000000000E+00   0.00000000000000E+00   0.00000000000000E+00
      3.50454858889329E-18   0.00000000000000E+00   0.00000000000000E+00   0.00000000000000E+00   0.00000000000000E+00
      1.63034104934666E-19  -1.44312155437951E-33   1.63034104934664E-19  -1.45916743829604E-17   2.26644375579614E-03
      2.26644371102772E-03   0.00000000000000E+00   0.00000000000000E+00   2.47276227924266E-10   7.15864908587872E-34
      2.47276227924266E-10   4.88115486777048E-18
      5.08550959608485E-02
      0.00000000000000E+00   4.97406862128785E-11   0.00000000000000E+00   0.00000000000000E+00  -2.74862254303238E-10
      7.13766825317847E-34  -2.74862254303238E-10   6.20581375112631E-18   0.00000000000000E+00   0.00000000000000E+00
      0.00000000000000E+00   0.00000000000000E+00   0.00000000000000E+00   0.00000000000000E+00   0.00000000000000E+00
      3.50148709973676E-18   0.00000000000000E+00   0.00000000000000E+00   0.00000000000000E+00   0.00000000000000E+00
      2.74046242697446E-18  -1.41012951635616E-33   2.74046242697446E-18  -1.45916494461316E-17   2.54275479804242E-03
      2.54275474827950E-03   0.00000000000000E+00   0.00000000000000E+00   2.74862251562775E-10   6.96362691038314E-34
      2.74862251562775E-10   4.88434859526855E-18
      5.69339388902666E-02
      0.00000000000000E+00   5.51197005877251E-11   0.00000000000000E+00   0.00000000000000E+00  -3.04584222444086E-10
      6.78860436783893E-34  -3.04584222444086E-10   6.20564086403566E-18   0.00000000000000E+00   0.00000000000000E+00
      0.00000000000000E+00   0.00000000000000E+00   0.00000000000000E+00   0.00000000000000E+00   0.00000000000000E+00
      3.49811969258745E-18   0.00000000000000E+00   0.00000000000000E+00   0.00000000000000E+00   0.00000000000000E+00
      4.57217702655156E-18  -1.37125627351471E-33   4.57217702655156E-18  -1.45916225921529E-17   2.84669694451333E-03
      2.84669688936916E-03   0.00000000000000E+00   0.00000000000000E+00   3.04584217871909E-10   6.92395836730816E-34
      3.04584217871909E-10   4.88786203552967E-18
      6.36206661126266E-02
      0.00000000000000E+00   6.09022944923875E-11   0.00000000000000E+00   0.00000000000000E+00  -3.36535675154769E-10
      7.03861274616332E-34  -3.36535675154769E-10   6.20545069497299E-18   0.00000000000000E+00   0.00000000000000E+00
      0.00000000000000E+00   0.00000000000000E+00   0.00000000000000E+00   0.00000000000000E+00   0.00000000000000E+00
      3.49441582270099E-18   0.00000000000000E+00   0.00000000000000E+00   0.00000000000000E+00   0.00000000000000E+00
      6.11960782473203E-18  -1.39076578410965E-33   6.11960782473202E-18  -1.45915937475444E-17   3.18103330563133E-03
      3.18103324470220E-03   0.00000000000000E+00   0.00000000000000E+00   3.36535669035161E-10   6.86904509493319E-34
      3.36535669035161E-10   4.89172722987044E-18
      7.09760660572226E-02
      0.00000000000000E+00   6.71032979679111E-11   0.00000000000000E+00   0.00000000000000E+00  -3.70798454011132E-10
      7.10705529303081E-34  -3.70798454011132E-10   6.20524151710856E-18   0.00000000000000E+00   0.00000000000000E+00
      0.00000000000000E+00   0.00000000000000E+00   0.00000000000000E+00   0.00000000000000E+00   0.00000000000000E+00
      3.49034190027041E-18   0.00000000000000E+00   0.00000000000000E+00   0.00000000000000E+00   0.00000000000000E+00
      1.01742727087102E-17  -1.38903504405895E-33   1.01742727087102E-17  -1.45915628553834E-17   3.54880330286113E-03
      3.54880323572850E-03   0.00000000000000E+00   0.00000000000000E+00   3.70798443836859E-10   6.78329514755865E-34
      3.70798443836859E-10   4.89597943800431E-18
      7.90670059962782E-02
      0.00000000000000E+00   7.37346734585465E-11   0.00000000000000E+00   0.00000000000000E+00  -4.07438482567754E-10
      6.97349475855450E-34  -4.07438482567754E-10   6.20501143120043E-18   0.00000000000000E+00   0.00000000000000E+00
      0.00000000000000E+00   0.00000000000000E+00   0.00000000000000E+00   0.00000000000000E+00   0.00000000000000E+00
      3.48586098774570E-18   0.00000000000000E+00   0.00000000000000E+00   0.00000000000000E+00   0.00000000000000E+00
      1.53123924208331E-17  -1.38359509732367E-33   1.53123924208331E-17  -1.45915298816780E-17   3.95335029981391E-03
      3.95335022604730E-03   0.00000000000000E+00   0.00000000000000E+00   4.07438467255362E-10   6.86245621468225E-34
      4.07438467255362E-10   4.90065746273186E-18
      8.79670399292394E-02
      0.00000000000000E+00   8.08046106752085E-11   0.00000000000000E+00   0.00000000000000E+00  -4.46500908180093E-10
      7.17261457485356E-34  -4.46500908180093E-10   6.20475834840447E-18   0.00000000000000E+00   0.00000000000000E+00
      0.00000000000000E+00   0.00000000000000E+00   0.00000000000000E+00   0.00000000000000E+00   0.00000000000000E+00
      3.48093246723488E-18   0.00000000000000E+00   0.00000000000000E+00   0.00000000000000E+00   0.00000000000000E+00
      2.30335576896181E-17  -1.36554823603361E-33   2.30335576896181E-17  -1.45914948233001E-17   4.39835199646197E-03
      4.39835191562270E-03   0.00000000000000E+00   0.00000000000000E+00   4.46500885146535E-10   6.48286778548254E-34
      4.46500885146535E-10   4.90580400766076E-18
      9.77570772554967E-02
      0.00000000000000E+00   8.83165726525536E-11   0.00000000000000E+00   0.00000000000000E+00  -4.88004622688557E-10
      7.21850088856502E-34  -4.88004622688557E-10   6.20447997137459E-18   0.00000000000000E+00   0.00000000000000E+00
      0.00000000000000E+00   0.00000000000000E+00   0.00000000000000E+00   0.00000000000000E+00   0.00000000000000E+00
      3.47551167502230E-18   0.00000000000000E+00   0.00000000000000E+00   0.00000000000000E+00   0.00000000000000E+00
      3.49180783674255E-17  -1.37291336167421E-33   3.49180783674255E-17  -1.45914577177414E-17   4.88785386277484E-03
      4.88785377442076E-03   0.00000000000000E+00   0.00000000000000E+00   4.88004587770479E-10   6.51063272817704E-34
      4.88004587770479E-10   4.91146607134455E-18
      1.07757077255497E-01
      0.00000000000000E+00   9.57109125801427E-11   0.00000000000000E+00   0.00000000000000E+00  -5.28857548701668E-10
      7.01440728842627E-34  -5.28857548701668E-10   6.20419563917129E-18   0.00000000000000E+00   0.00000000000000E+00
      0.00000000000000E+00   0.00000000000000E+00   0.00000000000000E+00   0.00000000000000E+00   0.00000000000000E+00
      3.46997524808129E-18   0.00000000000000E+00   0.00000000000000E+00   0.00000000000000E+00   0.00000000000000E+00
      2.28975376151295E-17  -1.35950410730220E-33   2.28975376151295E-17  -1.45914213840378E-17   5.38785386277483E-03
      5.38785376702372E-03   0.00000000000000E+00   0.00000000000000E+00   5.28857525804130E-10   6.58063378459573E-34
      5.28857525804130E-10   4.91725049678522E-18
      1.17757077255497E-01
      0.00000000000000E+00   1.02831839155258E-10   0.00000000000000E+00   0.00000000000000E+00  -5.68198966687016E-10
      7.09194958591278E-34  -5.68198966687016E-10   6.20391132204397E-18   0.00000000000000E+00   0.00000000000000E+00
      0.00000000000000E+00   0.00000000000000E+00   0.00000000000000E+00   0.00000000000000E+00   0.00000000000000E+00
      3.46443944510999E-18   0.00000000000000E+00   0.00000000000000E+00   0.00000000000000E+00   0.00000000000000E+00
      3.86533344868659E-17  -1.36776204069356E-33   3.86533344868659E-17  -1.45913866241483E-17   5.88785386277483E-03
      5.88785375990026E-03   0.00000000000000E+00   0.00000000000000E+00   5.68198928033682E-10   6.58567082102280E-34
      5.68198928033682E-10   4.92303585699426E-18
      1.27757077255497E-01
      0.00000000000000E+00   1.09687614854694E-10   0.00000000000000E+00   0.00000000000000E+00  -6.06074660772638E-10
      6.74508457515238E-34  -6.06074660772638E-10   6.20362701984941E-18   0.00000000000000E+00   0.00000000000000E+00
      0.00000000000000E+00   0.00000000000000E+00   0.00000000000000E+00   0.00000000000000E+00   0.00000000000000E+00
      3.45890426083713E-18   0.00000000000000E+00   0.00000000000000E+00   0.00000000000000E+00   0.00000000000000E+00
      4.03079271935887E-17  -1.28654427862521E-33   4.03079271935887E-17  -1.45913534276170E-17   6.38785386277483E-03
      6.38785375304211E-03   0.00000000000000E+00   0.00000000000000E+00   6.06074620464711E-10   6.12035821109975E-34
      6.06074620464711E-10   4.92882214693040E-18
      1.37757077255497E-01
      0.00000000000000E+00   1.16286401436618E-10   0.00000000000000E+00   0.00000000000000E+00  -6.42529877632274E-10
      7.02502386469174E-34  -6.42529877632274E-10   6.20334273244638E-18   0.00000000000000E+00   0.00000000000000E+00
      0.00000000000000E+00   0.00000000000000E+00   0.00000000000000E+00   0.00000000000000E+00   0.00000000000000E+00
      3.45336969010058E-18   0.00000000000000E+00   0.00000000000000E+00   0.00000000000000E+00   0.00000000000000E+00
      1.06107942666021E-16  -1.32518413516938E-33   1.06107942666021E-16  -1.45913217841565E-17   6.88785386277483E-03
      6.88785374644109E-03   0.00000000000000E+00   0.00000000000000E+00   6.42529771524331E-10   6.22681748700205E-34
      6.42529771524331E-10   4.93460936160944E-18
      1.47757077255497E-01
      0.00000000000000E+00   1.22636276357268E-10   0.00000000000000E+00   0.00000000000000E+00  -6.77609136592911E-10
      6.98209691685101E-34  -6.77609136592911E-10   6.20305845969122E-18   0.00000000000000E+00   0.00000000000000E+00
      0.00000000000000E+00   0.00000000000000E+00   0.00000000000000E+00   0.00000000000000E+00   0.00000000000000E+00
      3.44783572770931E-18   0.00000000000000E+00   0.00000000000000E+00   0.00000000000000E+00   0.00000000000000E+00
      2.63038710214637E-17  -1.31041868313259E-33   2.63038710214637E-17  -1.45912916834533E-17   7.38785386277483E-03
      7.38785374008913E-03   0.00000000000000E+00   0.00000000000000E+00   6.77609110289040E-10   6.12208991447485E-34
      6.77609110289040E-10   4.94039749605275E-18
      1.57757077255497E-01
      0.00000000000000E+00   1.28745191951062E-10   0.00000000000000E+00   0.00000000000000E+00  -7.11356612930897E-10
      6.97994883480092E-34  -7.11356612930897E-10   6.20277420144075E-18   0.00000000000000E+00   0.00000000000000E+00
      0.00000000000000E+00   0.00000000000000E+00   0.00000000000000E+00   0.00000000000000E+00   0.00000000000000E+00
      3.44230236852615E-18   0.00000000000000E+00   0.00000000000000E+00   0.00000000000000E+00   0.00000000000000E+00
      3.86691821525669E-17  -1.28665737913513E-33   3.86691821525669E-17  -1.45912631152843E-17   7.88785386277484E-03
      7.88785373397827E-03   0.00000000000000E+00   0.00000000000000E+00   7.11356574261715E-10   5.88662495655041E-34
      7.11356574261715E-10   4.94618654531745E-18
      1.67757077255497E-01
      0.00000000000000E+00   1.34620935498111E-10   0.00000000000000E+00   0.00000000000000E+00  -7.43815433938445E-10
      6.97129817586154E-34  -7.43815433938445E-10   6.20248995755176E-18   0.00000000000000E+00   0.00000000000000E+00
      0.00000000000000E+00   0.00000000000000E+00   0.00000000000000E+00   0.00000000000000E+00   0.00000000000000E+00
      3.43676960743566E-18   0.00000000000000E+00   0.00000000000000E+00   0.00000000000000E+00   0.00000000000000E+00
      3.68925145514980E-17  -1.27404593904208E-33   3.68925145514980E-17  -1.45912360694678E-17   8.38785386277484E-03
      8.38785372810070E-03   0.00000000000000E+00   0.00000000000000E+00   7.43815397045930E-10   5.76916121455931E-34
      7.43815397045930E-10   4.95197650448031E-18
      1.77757077255497E-01
      0.00000000000000E+00   1.40271162057599E-10   0.00000000000000E+00   0.00000000000000E+00  -7.75027883237920E-10
      6.98159820379481E-34  -7.75027883237920E-10   6.20220572788194E-18   0.00000000000000E+00   0.00000000000000E+00
      0.00000000000000E+00   0.00000000000000E+00   0.00000000000000E+00   0.00000000000000E+00   0.00000000000000E+00
      3.43123743939086E-18   0.00000000000000E+00   0.00000000000000E+00   0.00000000000000E+00   0.00000000000000E+00
      3.63493300360065E-17  -1.27164948777571E-33   3.63493300360065E-17  -1.45912105359336E-17   8.88785386277484E-03
      8.88785372244877E-03   0.00000000000000E+00   0.00000000000000E+00   7.75027846888590E-10   5.73489667396228E-34
      7.75027846888590E-10   4.95776736866087E-18
      1.87757077255497E-01
      0.00000000000000E+00   1.45703302623046E-10   0.00000000000000E+00   0.00000000000000E+00  -8.05035218732667E-10
      7.09538363963738E-34  -8.05035218732667E-10   6.20192151229052E-18   0.00000000000000E+00   0.00000000000000E+00
      0.00000000000000E+00   0.00000000000000E+00   0.00000000000000E+00   0.00000000000000E+00   0.00000000000000E+00
      3.42570585942019E-18   0.00000000000000E+00   0.00000000000000E+00   0.00000000000000E+00   0.00000000000000E+00
      3.67850902071129E-17  -1.27524001487421E-33   3.67850902071129E-17  -1.45911865047270E-17   9.38785386277484E-03
      9.38785371701503E-03   0.00000000000000E+00   0.00000000000000E+00   8.05035181947576E-10   5.65701650910475E-34
      8.05035181947576E-10   4.96355913301626E-18
      1.97757077255497E-01
      0.00000000000000E+00   1.50924683919793E-10   0.00000000000000E+00   0.00000000000000E+00  -8.33877836442085E-10