DF-ISE text

Info {
  version   = 1.0
  type      = xyplot
  datasets  = [
    "time"
    "source OuterVoltage" "source InnerVoltage" "source QuasiFermiPotential" "source DisplacementCurrent" "source eCurrent"
    "source hCurrent" "source TotalCurrent" "source Charge" "gate OuterVoltage" "gate InnerVoltage"
    "gate QuasiFermiPotential" "gate DisplacementCurrent" "gate eCurrent" "gate hCurrent" "gate TotalCurrent"
    "gate Charge" "substrate OuterVoltage" "substrate InnerVoltage" "substrate QuasiFermiPotential" "substrate DisplacementCurrent"
    "substrate eCurrent" "substrate hCurrent" "substrate TotalCurrent" "substrate Charge" "drain OuterVoltage"
    "drain InnerVoltage" "drain QuasiFermiPotential" "drain DisplacementCurrent" "drain eCurrent" "drain hCurrent"
    "drain TotalCurrent" "drain Charge" ]
  functions = [
    Time
    OuterVoltage InnerVoltage QuasiFermiPotential DisplacementCurrent eCurrent
    hCurrent TotalCurrent Charge OuterVoltage InnerVoltage
    QuasiFermiPotential DisplacementCurrent eCurrent hCurrent TotalCurrent
    Charge OuterVoltage InnerVoltage QuasiFermiPotential DisplacementCurrent
    eCurrent hCurrent TotalCurrent Charge OuterVoltage
    InnerVoltage QuasiFermiPotential DisplacementCurrent eCurrent hCurrent
    TotalCurrent Charge ]
}

Data {
      0.00000000000000E+00
      0.00000000000000E+00   0.00000000000000E+00   0.00000000000000E+00   0.00000000000000E+00  -3.29069232628635E-20
     -2.02966504784046E-35  -3.29069232628635E-20   6.68785553905673E-18   0.00000000000000E+00   0.00000000000000E+00
      0.00000000000000E+00   0.00000000000000E+00   0.00000000000000E+00   0.00000000000000E+00   0.00000000000000E+00
      4.17464143297599E-18   0.00000000000000E+00   0.00000000000000E+00   0.00000000000000E+00   0.00000000000000E+00
      3.21186185990365E-20   1.16096305651139E-34   3.21186185990366E-20  -1.61843487712018E-17   0.00000000000000E+00
      0.00000000000000E+00   0.00000000000000E+00   0.00000000000000E+00   7.88304663827056E-22  -9.57996551727343E-35
      7.88304663826960E-22   5.32185179916908E-18
      0.00000000000000E+00
      0.00000000000000E+00   1.29968967746500E-18   0.00000000000000E+00   0.00000000000000E+00  -3.91204585685453E-18
     -1.89477344550222E-35  -3.91204585685453E-18   6.68310736463701E-18   0.00000000000000E+00   0.00000000000000E+00
      0.00000000000000E+00   0.00000000000000E+00   0.00000000000000E+00   0.00000000000000E+00   0.00000000000000E+00
      4.16490111329871E-18   0.00000000000000E+00   0.00000000000000E+00   0.00000000000000E+00   0.00000000000000E+00
      4.16543704643352E-18   1.20252362696835E-34   4.16543704643352E-18  -1.61659244200652E-17   0.00000000000000E+00
      0.00000000000000E+00   0.00000000000000E+00   0.00000000000000E+00  -2.53391189578996E-19  -1.01304628241813E-34
     -2.53391189578996E-19   5.31791594212949E-18
      1.00000000000000E-03
      0.00000000000000E+00   1.39771651859236E-11   0.00000000000000E+00   0.00000000000000E+00  -8.14945051234031E-11
     -3.41982196465042E-35  -8.14945051234031E-11   6.68260896875495E-18   0.00000000000000E+00   0.00000000000000E+00
      0.00000000000000E+00   0.00000000000000E+00   0.00000000000000E+00   0.00000000000000E+00   0.00000000000000E+00
      4.15452222195625E-18   0.00000000000000E+00   0.00000000000000E+00   0.00000000000000E+00   0.00000000000000E+00
     -2.13323086583351E-19   9.50125767771685E-35  -2.13323086583351E-19  -1.61657930755339E-17   8.60000000000000E-04
      8.59999986011091E-04   0.00000000000000E+00   0.00000000000000E+00   8.14945053367262E-11  -6.08143571306643E-35
      8.14945053367262E-11   5.32866188482265E-18
      2.08666666666667E-03
      0.00000000000000E+00   2.82947762847211E-11   0.00000000000000E+00   0.00000000000000E+00  -1.64969591430873E-10
     -3.34183918362018E-35  -1.64969591430873E-10   6.68206742912002E-18   0.00000000000000E+00   0.00000000000000E+00
      0.00000000000000E+00   0.00000000000000E+00   0.00000000000000E+00   0.00000000000000E+00   0.00000000000000E+00
      4.14324601298011E-18   0.00000000000000E+00   0.00000000000000E+00   0.00000000000000E+00   0.00000000000000E+00
      5.64735685391246E-16   1.22404998492113E-34   5.64735685391246E-16  -1.61656559778592E-17   1.79453333333333E-03
      1.79453330501495E-03   0.00000000000000E+00   0.00000000000000E+00   1.64969026695188E-10  -8.89866066559114E-35
      1.64969026695188E-10   5.34034253575910E-18
      3.28200000000000E-03
      0.00000000000000E+00   4.30129747032975E-11   0.00000000000000E+00   0.00000000000000E+00  -2.50773354518925E-10
     -2.22873451719133E-36  -2.50773354518925E-10   6.68147179558845E-18   0.00000000000000E+00   0.00000000000000E+00
      0.00000000000000E+00   0.00000000000000E+00   0.00000000000000E+00   0.00000000000000E+00   0.00000000000000E+00
      4.13084477193288E-18   0.00000000000000E+00   0.00000000000000E+00   0.00000000000000E+00   0.00000000000000E+00
      7.58652177046976E-16   9.32283011302422E-35   7.58652177046976E-16  -1.61655118600042E-17   2.82252000000000E-03
      2.82251995695167E-03   0.00000000000000E+00   0.00000000000000E+00   2.50772595866748E-10  -9.09995666130508E-35
      2.50772595866748E-10   5.35319529248280E-18
      4.59686666666667E-03
      0.00000000000000E+00   5.80072978258401E-11   0.00000000000000E+00   0.00000000000000E+00  -3.38179244287885E-10
     -7.39048640821675E-36  -3.38179244287885E-10   6.68081667019600E-18   0.00000000000000E+00   0.00000000000000E+00
      0.00000000000000E+00   0.00000000000000E+00   0.00000000000000E+00   0.00000000000000E+00   0.00000000000000E+00
      4.11720648572916E-18   0.00000000000000E+00   0.00000000000000E+00   0.00000000000000E+00   0.00000000000000E+00
      1.12962891820444E-15   8.60449777618310E-35   1.12962891820444E-15  -1.61653613163724E-17   3.95330533333333E-03
      3.95330527527905E-03   0.00000000000000E+00   0.00000000000000E+00   3.38178114658967E-10  -7.86544913536143E-35
      3.38178114658967E-10   5.36733816044718E-18
      6.04322000000000E-03
      0.00000000000000E+00   7.31358723936164E-11   0.00000000000000E+00   0.00000000000000E+00  -4.26359178866158E-10
     -3.43224855160518E-35  -4.26359178866158E-10   6.68009611710174E-18   0.00000000000000E+00   0.00000000000000E+00
      0.00000000000000E+00   0.00000000000000E+00   0.00000000000000E+00   0.00000000000000E+00   0.00000000000000E+00
      4.10220802667106E-18   0.00000000000000E+00   0.00000000000000E+00   0.00000000000000E+00   0.00000000000000E+00
      1.61830476366631E-15   1.24357137320195E-34   1.61830476366631E-15  -1.61652052397064E-17   5.19716920000000E-03
      5.19716912680576E-03   0.00000000000000E+00   0.00000000000000E+00   4.26357560561394E-10  -9.00346518041430E-35
      4.26357560561394E-10   5.38290109593360E-18
      7.63420866666667E-03
      0.00000000000000E+00   8.82386901445945E-11   0.00000000000000E+00   0.00000000000000E+00  -5.14379065511238E-10
     -2.94243834162242E-35  -5.14379065511238E-10   6.67930360907493E-18   0.00000000000000E+00   0.00000000000000E+00
      0.00000000000000E+00   0.00000000000000E+00   0.00000000000000E+00   0.00000000000000E+00   0.00000000000000E+00
      4.08571405405748E-18   0.00000000000000E+00   0.00000000000000E+00   0.00000000000000E+00   0.00000000000000E+00
     -1.09565187655624E-19   8.67688541051203E-35  -1.09565187655624E-19  -1.61650448905948E-17   6.56541945333333E-03
      6.56541936502555E-03   0.00000000000000E+00   0.00000000000000E+00   5.14379065620804E-10  -5.73444706888961E-35
      5.14379065620804E-10   5.40002722746241E-18
      9.37368960888889E-03
      0.00000000000000E+00   1.03054946683497E-10   0.00000000000000E+00   0.00000000000000E+00  -6.00720432831151E-10
     -6.15834104534619E-35  -6.00720432831151E-10   6.67843725096959E-18   0.00000000000000E+00   0.00000000000000E+00
      0.00000000000000E+00   0.00000000000000E+00   0.00000000000000E+00   0.00000000000000E+00   0.00000000000000E+00
      4.06768572081946E-18   0.00000000000000E+00   0.00000000000000E+00   0.00000000000000E+00   0.00000000000000E+00
     -2.76043009365119E-19   1.15716770634871E-34  -2.76043009365119E-19  -1.61648829254619E-17   8.06137306364445E-03
      8.06137296051003E-03   0.00000000000000E+00   0.00000000000000E+00   6.00720433107194E-10  -5.41333601814087E-35
      6.00720433107194E-10   5.41875995367287E-18
      1.12755221057185E-02
      0.00000000000000E+00   1.17412392404449E-10   0.00000000000000E+00   0.00000000000000E+00  -6.84379612088917E-10
     -5.04579166632994E-35  -6.84379612088917E-10   6.67749016910920E-18   0.00000000000000E+00   0.00000000000000E+00
      0.00000000000000E+00   0.00000000000000E+00   0.00000000000000E+00   0.00000000000000E+00   0.00000000000000E+00
      4.04798066213914E-18   0.00000000000000E+00   0.00000000000000E+00   0.00000000000000E+00   0.00000000000000E+00
      7.64725803487163E-19   1.21964871097931E-34   7.64725803487164E-19  -1.61647214946050E-17   9.69694901091793E-03
      9.69694889341632E-03   0.00000000000000E+00   0.00000000000000E+00   6.84379611324191E-10  -7.15069544346316E-35
      6.84379611324191E-10   5.43925066335665E-18
      1.33548589689189E-02
      0.00000000000000E+00   1.31136499345572E-10   0.00000000000000E+00   0.00000000000000E+00  -7.64341312941084E-10
     -3.14275570563817E-35  -7.64341312941084E-10   6.67645485084359E-18   0.00000000000000E+00   0.00000000000000E+00
      0.00000000000000E+00   0.00000000000000E+00   0.00000000000000E+00   0.00000000000000E+00   0.00000000000000E+00
      4.02644334971416E-18   0.00000000000000E+00   0.00000000000000E+00   0.00000000000000E+00   0.00000000000000E+00
      2.75809882389495E-19   8.64220693474042E-35   2.75809882389495E-19  -1.61645633135577E-17   1.14851787132703E-02
      1.14851785820355E-02   0.00000000000000E+00   0.00000000000000E+00   7.64341312665274E-10  -5.49945122910225E-35
      7.64341312665274E-10   5.46166511300001E-18
      1.56282672726847E-02
      0.00000000000000E+00   1.44057148958834E-10   0.00000000000000E+00   0.00000000000000E+00  -8.39617018767020E-10
     -3.64936252111656E-35  -8.39617018767020E-10   6.67532308509512E-18   0.00000000000000E+00   0.00000000000000E+00
      0.00000000000000E+00   0.00000000000000E+00   0.00000000000000E+00   0.00000000000000E+00   0.00000000000000E+00
      4.00290387602342E-18   0.00000000000000E+00   0.00000000000000E+00   0.00000000000000E+00   0.00000000000000E+00
      2.99894237465513E-19   9.83486012734329E-35   2.99894237465513E-19  -1.61644117633212E-17   1.34403098545088E-02
      1.34403097103452E-02   0.00000000000000E+00   0.00000000000000E+00   8.39617018467126E-10  -6.18549760622673E-35
      8.39617018467126E-10   5.48618480220266E-18
      1.81138603514686E-02
      0.00000000000000E+00   1.56016585344413E-10   0.00000000000000E+00   0.00000000000000E+00  -9.09291558734993E-10
     -1.89569064316610E-35  -9.09291558734993E-10   6.67408589735370E-18   0.00000000000000E+00   0.00000000000000E+00
      0.00000000000000E+00   0.00000000000000E+00   0.00000000000000E+00   0.00000000000000E+00   0.00000000000000E+00
      3.97717662623109E-18   0.00000000000000E+00   0.00000000000000E+00   0.00000000000000E+00   0.00000000000000E+00
     -8.17839585246887E-19   8.52211865226218E-35  -8.17839585246887E-19  -1.61642710051109E-17   1.55779199022630E-02
      1.55779197461325E-02   0.00000000000000E+00   0.00000000000000E+00   9.09291559552833E-10  -6.62642800909608E-35
      9.09291559552833E-10   5.51300848152613E-18
      2.08314421176057E-02
      0.00000000000000E+00   1.66878938510198E-10   0.00000000000000E+00   0.00000000000000E+00  -9.72578535110635E-10
     -3.01050029990993E-35  -9.72578535110635E-10   6.67273347854369E-18   0.00000000000000E+00   0.00000000000000E+00
      0.00000000000000E+00   0.00000000000000E+00   0.00000000000000E+00   0.00000000000000E+00   0.00000000000000E+00
      3.94905882509536E-18   0.00000000000000E+00   0.00000000000000E+00   0.00000000000000E+00   0.00000000000000E+00
     -4.28622091744580E-19   7.61510335462528E-35  -4.28622091744580E-19  -1.61641461083509E-17   1.79150402211409E-02
      1.79150400541413E-02   0.00000000000000E+00   0.00000000000000E+00   9.72578535539257E-10  -4.60460305471535E-35
      9.72578535539257E-10   5.54235380471198E-18
      2.38026648485822E-02
      0.00000000000000E+00   1.76540588097273E-10   0.00000000000000E+00   0.00000000000000E+00  -1.02888092210845E-09
     -1.40166028020816E-35  -1.02888092210845E-09   6.67125510717878E-18   0.00000000000000E+00   0.00000000000000E+00
      0.00000000000000E+00   0.00000000000000E+00   0.00000000000000E+00   0.00000000000000E+00   0.00000000000000E+00
      3.91832894689133E-18   0.00000000000000E+00   0.00000000000000E+00   0.00000000000000E+00   0.00000000000000E+00
      9.75967292535354E-19   5.47633623722344E-35   9.75967292535354E-19  -1.61640431925503E-17   2.04702917697807E-02
      2.04702915931135E-02   0.00000000000000E+00   0.00000000000000E+00   1.02888092113248E-09  -4.07467595701527E-35
      1.02888092113248E-09   5.57445913848020E-18
      2.70512017011165E-02
      0.00000000000000E+00   1.84940991094623E-10   0.00000000000000E+00   0.00000000000000E+00  -1.07785392568904E-09
     -4.74991715383268E-35  -1.07785392568904E-09   6.66963906416068E-18   0.00000000000000E+00   0.00000000000000E+00
      0.00000000000000E+00   0.00000000000000E+00   0.00000000000000E+00   0.00000000000000E+00   0.00000000000000E+00
      3.88474497495376E-18   0.00000000000000E+00   0.00000000000000E+00   0.00000000000000E+00   0.00000000000000E+00
      9.59334297519856E-20   1.03017722424320E-34   9.59334297519857E-20  -1.61639695837919E-17   2.32640334629602E-02
      2.32640332778875E-02   0.00000000000000E+00   0.00000000000000E+00   1.07785392559310E-09  -5.55185508859931E-35
      1.07785392559310E-09   5.60958554467745E-18
      3.06029353265541E-02
      0.00000000000000E+00   1.92073026502505E-10   0.00000000000000E+00   0.00000000000000E+00  -1.11946510088859E-09
     -2.94958129193274E-35  -1.11946510088859E-09   6.66787253951629E-18   0.00000000000000E+00   0.00000000000000E+00
      0.00000000000000E+00   0.00000000000000E+00   0.00000000000000E+00   0.00000000000000E+00   0.00000000000000E+00
      3.84804249538145E-18   0.00000000000000E+00   0.00000000000000E+00   0.00000000000000E+00   0.00000000000000E+00
     -2.24975655973339E-18   5.40776945088284E-35  -2.24975655973339E-18  -1.61639339850265E-17   2.63185243808365E-02
      2.63185241886274E-02   0.00000000000000E+00   0.00000000000000E+00   1.11946510313835E-09  -2.45818815895009E-35
      1.11946510313835E-09   5.64801895012875E-18
      3.44861640903658E-02
      0.00000000000000E+00   1.97991565919412E-10   0.00000000000000E+00   0.00000000000000E+00  -1.15404395132085E-09
     -4.88494096707972E-35  -1.15404395132085E-09   6.66594153028072E-18   0.00000000000000E+00   0.00000000000000E+00
      0.00000000000000E+00   0.00000000000000E+00   0.00000000000000E+00   0.00000000000000E+00   0.00000000000000E+00
      3.80793260735731E-18   0.00000000000000E+00   0.00000000000000E+00   0.00000000000000E+00   0.00000000000000E+00
     -2.40920044619779E-18   8.03083347956600E-35  -2.40920044619779E-18  -1.61639466582381E-17   2.96581011177146E-02
      2.96581009195837E-02   0.00000000000000E+00   0.00000000000000E+00   1.15404395373005E-09  -3.14589251248628E-35
      1.15404395373005E-09   5.69007252060011E-18
      3.87318275388000E-02
      0.00000000000000E+00   2.02818168454418E-10   0.00000000000000E+00   0.00000000000000E+00  -1.18230872377862E-09
     -2.87641385782913E-35  -1.18230872377862E-09   6.66383072876200E-18   0.00000000000000E+00   0.00000000000000E+00
      0.00000000000000E+00   0.00000000000000E+00   0.00000000000000E+00   0.00000000000000E+00   0.00000000000000E+00
      3.76409963220829E-18   0.00000000000000E+00   0.00000000000000E+00   0.00000000000000E+00   0.00000000000000E+00
     -4.66723610735772E-18   5.69177787873220E-35  -4.66723610735772E-18  -1.61640196182307E-17   3.33093716833680E-02
      3.33093714804083E-02   0.00000000000000E+00   0.00000000000000E+00   1.18230872844586E-09  -2.81536402090307E-35
      1.18230872844586E-09   5.73608925726044E-18
      4.33737529090880E-02
      0.00000000000000E+00   2.06738915010943E-10   0.00000000000000E+00   0.00000000000000E+00  -1.20535281395276E-09
     -4.18790087561899E-35  -1.20535281395276E-09   6.66152340028003E-18   0.00000000000000E+00   0.00000000000000E+00
      0.00000000000000E+00   0.00000000000000E+00   0.00000000000000E+00   0.00000000000000E+00   0.00000000000000E+00
      3.71619859933547E-18   0.00000000000000E+00   0.00000000000000E+00   0.00000000000000E+00   0.00000000000000E+00
     -6.41373662538810E-18   6.81264469459955E-35  -6.41373662538810E-18  -1.61641668330228E-17   3.73014275018156E-02
      3.73014272949350E-02   0.00000000000000E+00   0.00000000000000E+00   1.20535282036649E-09  -2.62474381898057E-35
      1.20535282036649E-09   5.78644483340723E-18
      4.84489246472695E-02
      0.00000000000000E+00   2.09992339368413E-10   0.00000000000000E+00   0.00000000000000E+00  -1.22457301709655E-09
     -4.09066115552028E-35  -1.22457301709655E-09   6.65900124956301E-18   0.00000000000000E+00   0.00000000000000E+00
      0.00000000000000E+00   0.00000000000000E+00   0.00000000000000E+00   0.00000000000000E+00   0.00000000000000E+00
      3.66385248928480E-18   0.00000000000000E+00   0.00000000000000E+00   0.00000000000000E+00   0.00000000000000E+00
     -1.22227959452575E-17   6.72776806628019E-35  -1.22227959452575E-17  -1.61644044321781E-17   4.16660751966518E-02
      4.16660749865197E-02   0.00000000000000E+00   0.00000000000000E+00   1.22457302931934E-09  -2.63710691075990E-35
      1.22457302931934E-09   5.84155069333030E-18
      5.39977790810147E-02
      0.00000000000000E+00   2.12846370820918E-10   0.00000000000000E+00   0.00000000000000E+00  -1.24153470152870E-09
     -3.78009943883208E-35  -1.24153470152870E-09   6.65624427487893E-18   0.00000000000000E+00   0.00000000000000E+00
      0.00000000000000E+00   0.00000000000000E+00   0.00000000000000E+00   0.00000000000000E+00   0.00000000000000E+00
      3.60664921477274E-18   0.00000000000000E+00   0.00000000000000E+00   0.00000000000000E+00   0.00000000000000E+00
     -2.00200917979994E-17   5.96621902476006E-35  -2.00200917979994E-17  -1.61647509239606E-17   4.64380900096726E-02
      4.64380897966919E-02   0.00000000000000E+00   0.00000000000000E+00   1.24153472154880E-09  -2.18611958592799E-35
      1.24153472154880E-09   5.90185743430890E-18
      6.00645265952427E-02
      0.00000000000000E+00   2.15567829160793E-10   0.00000000000000E+00   0.00000000000000E+00  -1.25779493512877E-09
     -3.79069378102254E-35  -1.25779493512877E-09   6.65323060904829E-18   0.00000000000000E+00   0.00000000000000E+00
      0.00000000000000E+00   0.00000000000000E+00   0.00000000000000E+00   0.00000000000000E+00   0.00000000000000E+00
      3.54413831977646E-18   0.00000000000000E+00   0.00000000000000E+00   0.00000000000000E+00   0.00000000000000E+00
     -2.03105748482057E-17   5.15916787825704E-35  -2.03105748482057E-17  -1.61652274239664E-17   5.16554928719087E-02
      5.16554926562165E-02   0.00000000000000E+00   0.00000000000000E+00   1.25779495543935E-09  -1.36847409723449E-35
      1.25779495543935E-09   5.96785849514166E-18
      6.66975038774654E-02
      0.00000000000000E+00   2.18384550854956E-10   0.00000000000000E+00   0.00000000000000E+00  -1.27468125790524E-09
     -3.72426482172803E-35  -1.27468125790524E-09   6.64993634659602E-18   0.00000000000000E+00   0.00000000000000E+00
      0.00000000000000E+00   0.00000000000000E+00   0.00000000000000E+00   0.00000000000000E+00   0.00000000000000E+00
      3.47582738420889E-18   0.00000000000000E+00   0.00000000000000E+00   0.00000000000000E+00   0.00000000000000E+00
     -4.09919782605964E-19   4.72517218996084E-35  -4.09919782605964E-19  -1.61658579080966E-17   5.73598533346202E-02
      5.73598531161264E-02   0.00000000000000E+00   0.00000000000000E+00   1.27468125831516E-09  -1.00090736823282E-35
      1.27468125831516E-09   6.04009417729161E-18
      7.39053391908140E-02
      0.00000000000000E+00   2.21430094180815E-10   0.00000000000000E+00   0.00000000000000E+00  -1.29296657035701E-09
     -2.89264895540416E-35  -1.29296657035701E-09   6.64635731001466E-18   0.00000000000000E+00   0.00000000000000E+00
      0.00000000000000E+00   0.00000000000000E+00   0.00000000000000E+00   0.00000000000000E+00   0.00000000000000E+00
      3.40163317238291E-18   0.00000000000000E+00   0.00000000000000E+00   0.00000000000000E+00   0.00000000000000E+00
      1.32041850578654E-19   4.12762501399828E-35   1.32041850578654E-19  -1.61666641676445E-17   6.35585917041000E-02
      6.35585914825816E-02   0.00000000000000E+00   0.00000000000000E+00   1.29296657022497E-09  -1.23497605859412E-35
      1.29296657022497E-09   6.11867368524690E-18
      8.17378535646528E-02
      0.00000000000000E+00   2.24781671535957E-10   0.00000000000000E+00   0.00000000000000E+00  -1.31310011835593E-09
     -3.96296371105285E-35  -1.31310011835593E-09   6.64246886871063E-18   0.00000000000000E+00   0.00000000000000E+00
      0.00000000000000E+00   0.00000000000000E+00   0.00000000000000E+00   0.00000000000000E+00   0.00000000000000E+00
      3.32104839247193E-18   0.00000000000000E+00   0.00000000000000E+00   0.00000000000000E+00   0.00000000000000E+00
     -2.16552548781042E-19   4.72165087702623E-35  -2.16552548781042E-19  -1.61676733274882E-17   7.02945540656014E-02
      7.02945538407593E-02   0.00000000000000E+00   0.00000000000000E+00   1.31310011857248E-09  -7.58687165973374E-36
      1.31310011857248E-09   6.20415606630556E-18
      9.02491858508910E-02
      0.00000000000000E+00   2.28485850368297E-10   0.00000000000000E+00   0.00000000000000E+00  -1.33535963454435E-09
     -3.58937097513635E-35  -1.33535963454435E-09   6.63824425822579E-18   0.00000000000000E+00   0.00000000000000E+00
      0.00000000000000E+00   0.00000000000000E+00   0.00000000000000E+00   0.00000000000000E+00   0.00000000000000E+00
      3.23352176923539E-18   0.00000000000000E+00   0.00000000000000E+00   0.00000000000000E+00   0.00000000000000E+00
     -1.04559891899225E-18   4.31215026133995E-35  -1.04559891899225E-18  -1.61689154026613E-17   7.76142998317663E-02
      7.76142996032547E-02   0.00000000000000E+00   0.00000000000000E+00   1.33535963558995E-09  -7.22779286203604E-36
      1.33535963558995E-09   6.29714937520013E-18
      9.94981669352699E-02
      0.00000000000000E+00   2.32570654153429E-10   0.00000000000000E+00   0.00000000000000E+00  -1.35991706809654E-09
     -2.29899470854348E-35  -1.35991706809654E-09   6.63365439773524E-18   0.00000000000000E+00   0.00000000000000E+00
      0.00000000000000E+00   0.00000000000000E+00   0.00000000000000E+00   0.00000000000000E+00   0.00000000000000E+00
      3.13845427483072E-18   0.00000000000000E+00   0.00000000000000E+00   0.00000000000000E+00   0.00000000000000E+00
     -5.33808092648201E-19   2.60595604685644E-35  -5.33808092648201E-19  -1.61704235353482E-17   8.55684235643321E-02
      8.55684233317757E-02   0.00000000000000E+00   0.00000000000000E+00   1.35991706863035E-09  -3.06961338312962E-36
      1.35991706863035E-09   6.39831486278229E-18
      1.09498166935270E-01
      0.00000000000000E+00   2.37028484039040E-10   0.00000000000000E+00   0.00000000000000E+00  -1.38673567365638E-09
     -2.73320541096264E-35  -1.38673567365638E-09   6.62869277132400E-18   0.00000000000000E+00   0.00000000000000E+00
      0.00000000000000E+00   0.00000000000000E+00   0.00000000000000E+00   0.00000000000000E+00   0.00000000000000E+00
      3.03571427119870E-18   0.00000000000000E+00   0.00000000000000E+00   0.00000000000000E+00   0.00000000000000E+00
      2.57166366459445E-19   2.95547795642995E-35   2.57166366459445E-19  -1.61722245818921E-17   9.41684235643321E-02
      9.41684233273628E-02   0.00000000000000E+00   0.00000000000000E+00   1.38673567339922E-09  -2.22272545467314E-36
      1.38673567339922E-09   6.50781753936933E-18
      1.19498166935270E-01
      0.00000000000000E+00   2.41521870834848E-10   0.00000000000000E+00   0.00000000000000E+00  -1.41379229195841E-09
     -2.85394317412493E-35  -1.41379229195841E-09   6.62373201088927E-18   0.00000000000000E+00   0.00000000000000E+00
      0.00000000000000E+00   0.00000000000000E+00   0.00000000000000E+00   0.00000000000000E+00   0.00000000000000E+00
      2.93301786430894E-18   0.00000000000000E+00   0.00000000000000E+00   0.00000000000000E+00   0.00000000000000E+00
     -9.78765402049586E-19   3.09675152409922E-35  -9.78765402049586E-19  -1.61741877895241E-17   1.02768423564332E-01
      1.02768423322919E-01   0.00000000000000E+00   0.00000000000000E+00   1.41379229293718E-09  -2.42808349974295E-36
      1.41379229293718E-09   6.61743791432587E-18
      1.29498166935270E-01
      0.00000000000000E+00   2.46059489536218E-10   0.00000000000000E+00   0.00000000000000E+00  -1.44113953681194E-09
     -2.17147510955109E-35  -1.44113953681194E-09   6.61877202153059E-18   0.00000000000000E+00   0.00000000000000E+00
      0.00000000000000E+00   0.00000000000000E+00   0.00000000000000E+00   0.00000000000000E+00   0.00000000000000E+00
      2.83036034880760E-18   0.00000000000000E+00   0.00000000000000E+00   0.00000000000000E+00   0.00000000000000E+00
     -2.41542787914356E-19   2.32109055855298E-35  -2.41542787914356E-19  -1.61762993513999E-17   1.11368423564332E-01
      1.11368423318435E-01   0.00000000000000E+00   0.00000000000000E+00   1.44113953705348E-09  -1.49615449001888E-36
      1.44113953705348E-09   6.72716698106173E-18
      1.39498166935270E-01
      0.00000000000000E+00   2.50650639856024E-10   0.00000000000000E+00   0.00000000000000E+00  -1.46883228446869E-09
     -1.12089946729830E-35  -1.46883228446869E-09   6.61381272077180E-18   0.00000000000000E+00   0.00000000000000E+00
      0.00000000000000E+00   0.00000000000000E+00   0.00000000000000E+00   0.00000000000000E+00   0.00000000000000E+00
      2.72773763653112E-18   0.00000000000000E+00   0.00000000000000E+00   0.00000000000000E+00   0.00000000000000E+00
      2.68794201811453E-19   1.20155105596824E-35   2.68794201811453E-19  -1.61785468813039E-17   1.19968423564332E-01
      1.19968423313898E-01   0.00000000000000E+00   0.00000000000000E+00   1.46883228419990E-09  -8.06515886699334E-37
      1.46883228419990E-09   6.83699652400102E-18
      1.49498166935270E-01
      0.00000000000000E+00   2.55301265275161E-10   0.00000000000000E+00   0.00000000000000E+00  -1.49690533545390E-09
     -2.45439356267955E-35  -1.49690533545390E-09   6.60885403809606E-18   0.00000000000000E+00   0.00000000000000E+00
      0.00000000000000E+00   0.00000000000000E+00   0.00000000000000E+00   0.00000000000000E+00   0.00000000000000E+00
      2.62514620092974E-18   0.00000000000000E+00   0.00000000000000E+00   0.00000000000000E+00   0.00000000000000E+00
     -1.37688559719398E-19   2.55710338771801E-35  -1.37688559719398E-19  -1.61809192826831E-17   1.28568423564332E-01
      1.28568423309298E-01   0.00000000000000E+00   0.00000000000000E+00   1.49690533559159E-09  -1.02709825038460E-36
      1.49690533559159E-09   6.94691904365727E-18
      1.59498166935270E-01
      0.00000000000000E+00   2.60014513642026E-10   0.00000000000000E+00   0.00000000000000E+00  -1.52537686739078E-09
     -3.35680389660728E-35  -1.52537686739078E-09   6.60389591102561E-18   0.00000000000000E+00   0.00000000000000E+00
      0.00000000000000E+00   0.00000000000000E+00   0.00000000000000E+00   0.00000000000000E+00   0.00000000000000E+00
      2.52258296015005E-18   0.00000000000000E+00   0.00000000000000E+00   0.00000000000000E+00   0.00000000000000E+00
      4.20504671195100E-19   3.43414797342758E-35   4.20504671195100E-19  -1.61834065486518E-17   1.37168423564332E-01
      1.37168423304634E-01   0.00000000000000E+00   0.00000000000000E+00   1.52537686697027E-09  -7.73440768203014E-37
      1.52537686697027E-09   7.05692767747611E-18
      1.69498166935270E-01
      0.00000000000000E+00   2.64791657786046E-10   0.00000000000000E+00   0.00000000000000E+00  -1.55425429369523E-09
     -2.28172909210343E-35  -1.55425429369523E-09   6.59893828282630E-18   0.00000000000000E+00   0.00000000000000E+00
      0.00000000000000E+00   0.00000000000000E+00   0.00000000000000E+00   0.00000000000000E+00   0.00000000000000E+00
      2.42004518148974E-18   0.00000000000000E+00   0.00000000000000E+00   0.00000000000000E+00   0.00000000000000E+00
     -3.05365806461918E-19   2.34072058312386E-35  -3.05365806461918E-19  -1.61859995983066E-17   1.45768423564332E-01
      1.45768423299908E-01   0.00000000000000E+00   0.00000000000000E+00   1.55425429400060E-09  -5.89914910204309E-37
      1.55425429400060E-09   7.16701613399061E-18
      1.79498166935270E-01
      0.00000000000000E+00   2.69632899592348E-10   0.00000000000000E+00   0.00000000000000E+00  -1.58353928722236E-09
     -2.58990282511880E-35  -1.58353928722236E-09   6.59398110182463E-18   0.00000000000000E+00   0.00000000000000E+00
      0.00000000000000E+00   0.00000000000000E+00   0.00000000000000E+00   0.00000000000000E+00   0.00000000000000E+00
      2.31753042588263E-18   0.00000000000000E+00   0.00000000000000E+00   0.00000000000000E+00   0.00000000000000E+00
     -4.34378000264346E-19   2.61687942470348E-35  -4.34378000264346E-19  -1.61886901642439E-17   1.54368423564332E-01
      1.54368423295120E-01   0.00000000000000E+00   0.00000000000000E+00   1.58353928765674E-09  -2.69765995846776E-37
      1.58353928765674E-09   7.27717863653653E-18
      1.89498166935270E-01
      0.00000000000000E+00   2.74538211767451E-10   0.00000000000000E+00   0.00000000000000E+00  -1.61323187908516E-09