DF-ISE text

Info {
  version   = 1.0
  type      = xyplot
  datasets  = [
    "time"
    "source OuterVoltage" "source InnerVoltage" "source QuasiFermiPotential" "source DisplacementCurrent" "source eCurrent"
    "source hCurrent" "source TotalCurrent" "source Charge" "gate OuterVoltage" "gate InnerVoltage"
    "gate QuasiFermiPotential" "gate DisplacementCurrent" "gate eCurrent" "gate hCurrent" "gate TotalCurrent"
    "gate Charge" "substrate OuterVoltage" "substrate InnerVoltage" "substrate QuasiFermiPotential" "substrate DisplacementCurrent"
    "substrate eCurrent" "substrate hCurrent" "substrate TotalCurrent" "substrate Charge" "drain OuterVoltage"
    "drain InnerVoltage" "drain QuasiFermiPotential" "drain DisplacementCurrent" "drain eCurrent" "drain hCurrent"
    "drain TotalCurrent" "drain Charge" ]
  functions = [
    Time
    OuterVoltage InnerVoltage QuasiFermiPotential DisplacementCurrent eCurrent
    hCurrent TotalCurrent Charge OuterVoltage InnerVoltage
    QuasiFermiPotential DisplacementCurrent eCurrent hCurrent TotalCurrent
    Charge OuterVoltage InnerVoltage QuasiFermiPotential DisplacementCurrent
    eCurrent hCurrent TotalCurrent Charge OuterVoltage
    InnerVoltage QuasiFermiPotential DisplacementCurrent eCurrent hCurrent
    TotalCurrent Charge ]
}

Data {
      0.00000000000000E+00
      0.00000000000000E+00   0.00000000000000E+00   0.00000000000000E+00   0.00000000000000E+00   1.36798614799090E-20
      1.14900648484619E-34   1.36798614799091E-20   6.36588258622722E-18   0.00000000000000E+00   0.00000000000000E+00
      0.00000000000000E+00   0.00000000000000E+00   0.00000000000000E+00   0.00000000000000E+00   0.00000000000000E+00
      4.28868463045998E-18   0.00000000000000E+00   0.00000000000000E+00   0.00000000000000E+00   0.00000000000000E+00
     -1.49745793797703E-20  -2.36337144441991E-34  -1.49745793797705E-20  -1.59481018800433E-17   0.00000000000000E+00
      0.00000000000000E+00   0.00000000000000E+00   0.00000000000000E+00   1.29471789986131E-21   1.21436495957372E-34
      1.29471789986143E-21   5.29353466335614E-18
      0.00000000000000E+00
      0.00000000000000E+00   9.23062685502782E-19   0.00000000000000E+00   0.00000000000000E+00  -1.22654132195234E-18
      9.47160180770672E-35  -1.22654132195234E-18   6.36128699399283E-18   0.00000000000000E+00   0.00000000000000E+00
      0.00000000000000E+00   0.00000000000000E+00   0.00000000000000E+00   0.00000000000000E+00   0.00000000000000E+00
      4.27924042587548E-18   0.00000000000000E+00   0.00000000000000E+00   0.00000000000000E+00   0.00000000000000E+00
      1.58297685617619E-18  -2.17051723060364E-34   1.58297685617619E-18  -1.59301825858445E-17   0.00000000000000E+00
      0.00000000000000E+00   0.00000000000000E+00   0.00000000000000E+00  -3.56435534223852E-19   1.22335704983297E-34
     -3.56435534223852E-19   5.28965516597617E-18
      1.00000000000000E-03
      0.00000000000000E+00   6.51443459648224E-12   0.00000000000000E+00   0.00000000000000E+00  -3.62004472438805E-11
      1.25039980116912E-34  -3.62004472438805E-11   6.36105319068237E-18   0.00000000000000E+00   0.00000000000000E+00
      0.00000000000000E+00   0.00000000000000E+00   0.00000000000000E+00   0.00000000000000E+00   0.00000000000000E+00
      4.27411780360466E-18   0.00000000000000E+00   0.00000000000000E+00   0.00000000000000E+00   0.00000000000000E+00
     -8.18685332245110E-20  -2.45815803529682E-34  -8.18685332245113E-20  -1.59301178405865E-17   4.30000000000000E-04
      4.29999993470973E-04   0.00000000000000E+00   0.00000000000000E+00   3.62004473257491E-11   1.20775823412769E-34
      3.62004473257491E-11   5.29494684629954E-18
      2.08666666666667E-03
      0.00000000000000E+00   1.33974568923813E-11   0.00000000000000E+00   0.00000000000000E+00  -7.44486102588357E-11
      1.33640387747214E-34  -7.44486102588357E-11   6.36079913517538E-18   0.00000000000000E+00   0.00000000000000E+00
      0.00000000000000E+00   0.00000000000000E+00   0.00000000000000E+00   0.00000000000000E+00   0.00000000000000E+00
      4.26855175720987E-18   0.00000000000000E+00   0.00000000000000E+00   0.00000000000000E+00   0.00000000000000E+00
      3.29957446498493E-17  -2.72123371010805E-34   3.29957446498493E-17  -1.59300488746350E-17   8.97266666666667E-04
      8.97266653239185E-04   0.00000000000000E+00   0.00000000000000E+00   7.44485772630910E-11   1.38482983263591E-34
      7.44485772630910E-11   5.30069798224977E-18
      3.28200000000000E-03
      0.00000000000000E+00   2.07299017947232E-11   0.00000000000000E+00   0.00000000000000E+00  -1.15192954054211E-10
      1.25137413986575E-34  -1.15192954054211E-10   6.36051968700554E-18   0.00000000000000E+00   0.00000000000000E+00
      0.00000000000000E+00   0.00000000000000E+00   0.00000000000000E+00   0.00000000000000E+00   0.00000000000000E+00
      4.26242974643588E-18   0.00000000000000E+00   0.00000000000000E+00   0.00000000000000E+00   0.00000000000000E+00
      4.90546682227830E-17  -2.20943645371666E-34   4.90546682227830E-17  -1.59299746746680E-17   1.41126000000000E-03
      1.41125997922375E-03   0.00000000000000E+00   0.00000000000000E+00   1.15192904999543E-10   9.58062313850918E-35
      1.15192904999543E-10   5.30702524122658E-18
      4.59686666666667E-03
      0.00000000000000E+00   2.85086871972013E-11   0.00000000000000E+00   0.00000000000000E+00  -1.58416236516045E-10
      1.38013547308729E-34  -1.58416236516045E-10   6.36021230950307E-18   0.00000000000000E+00   0.00000000000000E+00
      0.00000000000000E+00   0.00000000000000E+00   0.00000000000000E+00   0.00000000000000E+00   0.00000000000000E+00
      4.25569630261856E-18   0.00000000000000E+00   0.00000000000000E+00   0.00000000000000E+00   0.00000000000000E+00
      6.84881275235233E-17  -2.43493367949409E-34   6.84881275235233E-17  -1.59298950530160E-17   1.97665266666667E-03
      1.97665263809434E-03   0.00000000000000E+00   0.00000000000000E+00   1.58416168027917E-10   1.05479820640680E-34
      1.58416168027917E-10   5.31398644089432E-18
      6.04322000000000E-03
      0.00000000000000E+00   3.67243544764771E-11   0.00000000000000E+00   0.00000000000000E+00  -2.04065519417904E-10
      1.09453806883712E-34  -2.04065519417904E-10   6.35987421282042E-18   0.00000000000000E+00   0.00000000000000E+00
      0.00000000000000E+00   0.00000000000000E+00   0.00000000000000E+00   0.00000000000000E+00   0.00000000000000E+00
      4.24829043496311E-18   0.00000000000000E+00   0.00000000000000E+00   0.00000000000000E+00   0.00000000000000E+00
      1.08749355287980E-16  -2.17284827802558E-34   1.08749355287980E-16  -1.59298098694984E-17   2.59858460000000E-03
      2.59858456319380E-03   0.00000000000000E+00   0.00000000000000E+00   2.04065410668548E-10   1.07831020918846E-34
      2.04065410668548E-10   5.32164522171487E-18
      7.63420866666667E-03
      0.00000000000000E+00   4.53594535940125E-11   0.00000000000000E+00   0.00000000000000E+00  -2.52043368844276E-10
      1.31117503016881E-34  -2.52043368844276E-10   6.35950232870405E-18   0.00000000000000E+00   0.00000000000000E+00
      0.00000000000000E+00   0.00000000000000E+00   0.00000000000000E+00   0.00000000000000E+00   0.00000000000000E+00
      4.24014508284590E-18   0.00000000000000E+00   0.00000000000000E+00   0.00000000000000E+00   0.00000000000000E+00
      1.60473626280393E-16  -2.43433302049172E-34   1.60473626280393E-16  -1.59297190487112E-17   3.28270972666667E-03
      3.28270968120629E-03   0.00000000000000E+00   0.00000000000000E+00   2.52043208370650E-10   1.12315799032291E-34
      2.52043208370650E-10   5.33007163716130E-18
      9.38429620000000E-03
      0.00000000000000E+00   5.43870745033371E-11   0.00000000000000E+00   0.00000000000000E+00  -3.02199960051443E-10
      1.44602304406557E-34  -3.02199960051443E-10   6.35909328275561E-18   0.00000000000000E+00   0.00000000000000E+00
      0.00000000000000E+00   0.00000000000000E+00   0.00000000000000E+00   0.00000000000000E+00   0.00000000000000E+00
      4.23118651412108E-18   0.00000000000000E+00   0.00000000000000E+00   0.00000000000000E+00   0.00000000000000E+00
      2.97144457534147E-16  -2.42260793360612E-34   2.97144457534147E-16  -1.59296226012934E-17   4.03524736600000E-03
      4.03524731149213E-03   0.00000000000000E+00   0.00000000000000E+00   3.02199662906985E-10   9.76584889540550E-35
      3.02199662906985E-10   5.33934280441677E-18
      1.13093924866667E-02
      0.00000000000000E+00   6.37694685559272E-11   0.00000000000000E+00   0.00000000000000E+00  -3.54325004256990E-10
      1.45518177412758E-34  -3.54325004256990E-10   6.35864336393537E-18   0.00000000000000E+00   0.00000000000000E+00
      0.00000000000000E+00   0.00000000000000E+00   0.00000000000000E+00   0.00000000000000E+00   0.00000000000000E+00
      4.22133366424080E-18   0.00000000000000E+00   0.00000000000000E+00   0.00000000000000E+00   0.00000000000000E+00
      3.19107859617777E-16  -2.31511321368036E-34   3.19107859617777E-16  -1.59295206500479E-17   4.86303876926667E-03
      4.86303870535581E-03   0.00000000000000E+00   0.00000000000000E+00   3.54324685149131E-10   8.59931439552774E-35
      3.54324685149131E-10   5.34954362187172E-18
      1.34269984020000E-02
      0.00000000000000E+00   7.34569985174013E-11   0.00000000000000E+00   0.00000000000000E+00  -4.08142537386355E-10
      1.35890954399185E-34  -4.08142537386355E-10   6.35814849102525E-18   0.00000000000000E+00   0.00000000000000E+00
      0.00000000000000E+00   0.00000000000000E+00   0.00000000000000E+00   0.00000000000000E+00   0.00000000000000E+00
      4.21049740983402E-18   0.00000000000000E+00   0.00000000000000E+00   0.00000000000000E+00   0.00000000000000E+00
      4.96114580472267E-16  -2.25237734678983E-34   4.96114580472267E-16  -1.59294134611183E-17   5.77360931286000E-03
      5.77360923924044E-03   0.00000000000000E+00   0.00000000000000E+00   4.08142041271774E-10   8.93467802797982E-35
      4.08142041271774E-10   5.36076756025904E-18
      1.57563649088667E-02
      0.00000000000000E+00   8.33871398136941E-11   0.00000000000000E+00   0.00000000000000E+00  -4.63304800370739E-10
      1.36755461513554E-34  -4.63304800370739E-10   6.35760417576007E-18   0.00000000000000E+00   0.00000000000000E+00
      0.00000000000000E+00   0.00000000000000E+00   0.00000000000000E+00   0.00000000000000E+00   0.00000000000000E+00
      4.19857977109358E-18   0.00000000000000E+00   0.00000000000000E+00   0.00000000000000E+00   0.00000000000000E+00
      7.12699095479255E-16  -2.27565412766957E-34   7.12699095479255E-16  -1.59293014821282E-17   6.77523691081267E-03
      6.77523682724132E-03   0.00000000000000E+00   0.00000000000000E+00   4.63304087671644E-10   9.08099512534029E-35
      4.63304087671644E-10   5.37311753527459E-18
      1.83186680664200E-02
      0.00000000000000E+00   9.34838800787799E-11   0.00000000000000E+00   0.00000000000000E+00  -5.19389280601635E-10
      1.22705404885746E-34  -5.19389280601635E-10   6.35700548228567E-18   0.00000000000000E+00   0.00000000000000E+00
      0.00000000000000E+00   0.00000000000000E+00   0.00000000000000E+00   0.00000000000000E+00   0.00000000000000E+00
      4.18547303536390E-18   0.00000000000000E+00   0.00000000000000E+00   0.00000000000000E+00   0.00000000000000E+00
      1.01384626031441E-15  -2.09589394828657E-34   1.01384626031441E-15  -1.59291853876418E-17   7.87702726856060E-03
      7.87702717487057E-03   0.00000000000000E+00   0.00000000000000E+00   5.19388266755376E-10   8.68839899429110E-35
      5.19388266755376E-10   5.38670686999222E-18
      2.11372015397287E-02
      0.00000000000000E+00   1.03657763461681E-10   0.00000000000000E+00   0.00000000000000E+00  -5.75897231210168E-10
      1.59261492174603E-34  -5.75897231210168E-10   6.35634698257954E-18   0.00000000000000E+00   0.00000000000000E+00
      0.00000000000000E+00   0.00000000000000E+00   0.00000000000000E+00   0.00000000000000E+00   0.00000000000000E+00
      4.17105879440775E-18   0.00000000000000E+00   0.00000000000000E+00   0.00000000000000E+00   0.00000000000000E+00
     -1.70714540438453E-19  -2.52014713442291E-34  -1.70714540438453E-19  -1.59290661335551E-17   9.08899666208333E-03
      9.08899655819779E-03   0.00000000000000E+00   0.00000000000000E+00   5.75897231380883E-10   9.27532212676881E-35
      5.75897231380883E-10   5.40166035656779E-18
      2.42187981372128E-02
      0.00000000000000E+00   1.13747694754867E-10   0.00000000000000E+00   0.00000000000000E+00  -6.31937244018732E-10
      1.38605371233650E-34  -6.31937244018732E-10   6.35562709674101E-18   0.00000000000000E+00   0.00000000000000E+00
      0.00000000000000E+00   0.00000000000000E+00   0.00000000000000E+00   0.00000000000000E+00   0.00000000000000E+00
      4.15530294697706E-18   0.00000000000000E+00   0.00000000000000E+00   0.00000000000000E+00   0.00000000000000E+00
      2.54177928689278E-19  -2.31838787521006E-34   2.54177928689278E-19  -1.59289457239121E-17   1.04140831990015E-02
      1.04140830850043E-02   0.00000000000000E+00   0.00000000000000E+00   6.31937243764554E-10   9.32334162873558E-35
      6.31937243764554E-10   5.41801568019397E-18
      2.75880104171288E-02
      0.00000000000000E+00   1.23648844498334E-10   0.00000000000000E+00   0.00000000000000E+00  -6.86926062819252E-10
      1.08318245762073E-34  -6.86926062819252E-10   6.35484010746357E-18   0.00000000000000E+00   0.00000000000000E+00
      0.00000000000000E+00   0.00000000000000E+00   0.00000000000000E+00   0.00000000000000E+00   0.00000000000000E+00
      4.13808090690125E-18   0.00000000000000E+00   0.00000000000000E+00   0.00000000000000E+00   0.00000000000000E+00
     -2.44233819366539E-19  -1.77381307048508E-34  -2.44233819366540E-19  -1.59288258002365E-17   1.18628444793654E-02
      1.18628443554457E-02   0.00000000000000E+00   0.00000000000000E+00   6.86926063063487E-10   6.90630612864348E-35
      6.86926063063487E-10   5.43590478587166E-18
      3.12716825098370E-02
      0.00000000000000E+00   1.33250475169358E-10   0.00000000000000E+00   0.00000000000000E+00  -7.40249495698617E-10
      1.22514601177770E-34  -7.40249495698617E-10   6.35397976550751E-18   0.00000000000000E+00   0.00000000000000E+00
      0.00000000000000E+00   0.00000000000000E+00   0.00000000000000E+00   0.00000000000000E+00   0.00000000000000E+00
      4.11925655644700E-18   0.00000000000000E+00   0.00000000000000E+00   0.00000000000000E+00   0.00000000000000E+00
     -1.15014170051218E-19  -1.89434082192374E-34  -1.15014170051218E-19  -1.59287084430874E-17   1.34468234792299E-02
      1.34468233456879E-02   0.00000000000000E+00   0.00000000000000E+00   7.40249495813631E-10   6.69194810146040E-35
      7.40249495813631E-10   5.45547212113284E-18
      3.52991639978646E-02
      0.00000000000000E+00   1.42439673586466E-10   0.00000000000000E+00   0.00000000000000E+00  -7.91281743451185E-10
      1.15407975832468E-34  -7.91281743451185E-10   6.35303924019565E-18   0.00000000000000E+00   0.00000000000000E+00
      0.00000000000000E+00   0.00000000000000E+00   0.00000000000000E+00   0.00000000000000E+00   0.00000000000000E+00
      4.09868118135935E-18   0.00000000000000E+00   0.00000000000000E+00   0.00000000000000E+00   0.00000000000000E+00
      5.88236553347056E-21  -1.82305599158697E-34   5.88236553347038E-21  -1.59285962531461E-17   1.51786405190818E-02
      1.51786403763308E-02   0.00000000000000E+00   0.00000000000000E+00   7.91281743445304E-10   6.68976233262286E-35
      7.91281743445304E-10   5.47687583159113E-18
      3.97025437581081E-02
      0.00000000000000E+00   1.51105722995847E-10   0.00000000000000E+00   0.00000000000000E+00  -8.39409825710647E-10
      1.29410333805168E-34  -8.39409825710647E-10   6.35201106528822E-18   0.00000000000000E+00   0.00000000000000E+00
      0.00000000000000E+00   0.00000000000000E+00   0.00000000000000E+00   0.00000000000000E+00   0.00000000000000E+00
      4.07619230785776E-18   0.00000000000000E+00   0.00000000000000E+00   0.00000000000000E+00   0.00000000000000E+00
     -1.48450095387156E-19  -1.93856959283336E-34  -1.48450095387157E-19  -1.59284924449226E-17   1.70720938159865E-02
      1.70720936645507E-02   0.00000000000000E+00   0.00000000000000E+00   8.39409825859096E-10   6.44466254781683E-35
      8.39409825859096E-10   5.50028907177669E-18
      4.45169056293076E-02
      0.00000000000000E+00   1.59145808060274E-10   0.00000000000000E+00   0.00000000000000E+00  -8.84065147085162E-10
      1.25416982747649E-34  -8.84065147085162E-10   6.35088707975875E-18   0.00000000000000E+00   0.00000000000000E+00
      0.00000000000000E+00   0.00000000000000E+00   0.00000000000000E+00   0.00000000000000E+00   0.00000000000000E+00
      4.05161243028671E-18   0.00000000000000E+00   0.00000000000000E+00   0.00000000000000E+00   0.00000000000000E+00
      7.68920746872250E-20  -1.82687233083297E-34   7.68920746872248E-20  -1.59284009517158E-17   1.91422694206023E-02
      1.91422692611090E-02   0.00000000000000E+00   0.00000000000000E+00   8.84065147008269E-10   5.72702503356479E-35
      8.84065147008269E-10   5.52590144167044E-18
      4.97806079418192E-02
      0.00000000000000E+00   1.66471406606678E-10   0.00000000000000E+00   0.00000000000000E+00  -9.24759259110219E-10
      1.35610443504535E-34  -9.24759259110219E-10   6.34965836303446E-18   0.00000000000000E+00   0.00000000000000E+00
      0.00000000000000E+00   0.00000000000000E+00   0.00000000000000E+00   0.00000000000000E+00   0.00000000000000E+00
      4.02474762102507E-18   0.00000000000000E+00   0.00000000000000E+00   0.00000000000000E+00   0.00000000000000E+00
      1.50051392334289E-19  -1.87870213789853E-34   1.50051392334289E-19  -1.59283265456507E-17   2.14056614149822E-02
      2.14056612481473E-02   0.00000000000000E+00   0.00000000000000E+00   9.24759258960167E-10   5.22597702853179E-35
      9.24759258960167E-10   5.55392056159121E-18
      5.55355891368318E-02
      0.00000000000000E+00   1.73015703665630E-10   0.00000000000000E+00   0.00000000000000E+00  -9.61124918621537E-10
      1.51693775662027E-34  -9.61124918621537E-10   6.34831516411560E-18   0.00000000000000E+00   0.00000000000000E+00
      0.00000000000000E+00   0.00000000000000E+00   0.00000000000000E+00   0.00000000000000E+00   0.00000000000000E+00
      3.99538600877015E-18   0.00000000000000E+00   0.00000000000000E+00   0.00000000000000E+00   0.00000000000000E+00
     -5.88179136248555E-19  -2.08022919059434E-34  -5.88179136248555E-19  -1.59282749702722E-17   2.38803033288377E-02
      2.38803031554439E-02   0.00000000000000E+00   0.00000000000000E+00   9.61124919209716E-10   5.63291433974075E-35
      9.61124919209716E-10   5.58457379738642E-18
      6.18277019100455E-02
      0.00000000000000E+00   1.78741188738780E-10   0.00000000000000E+00   0.00000000000000E+00  -9.92958362856455E-10
      1.32144330658964E-34  -9.92958362856455E-10   6.34684682401829E-18   0.00000000000000E+00   0.00000000000000E+00
      0.00000000000000E+00   0.00000000000000E+00   0.00000000000000E+00   0.00000000000000E+00   0.00000000000000E+00
      3.96329611374409E-18   0.00000000000000E+00   0.00000000000000E+00   0.00000000000000E+00   0.00000000000000E+00
     -1.75335373367904E-19  -1.83003970100546E-34  -1.75335373367904E-19  -1.59282530881428E-17   2.65859118213196E-02
      2.65859116421875E-02   0.00000000000000E+00   0.00000000000000E+00   9.92958363031791E-10   5.08596394415825E-35
      9.92958363031791E-10   5.61811015038043E-18
      6.87070785420926E-02
      0.00000000000000E+00   1.83646929994347E-10   0.00000000000000E+00   0.00000000000000E+00  -1.02025939969355E-09
      1.29544945345090E-34  -1.02025939969355E-09   6.34524169090450E-18   0.00000000000000E+00   0.00000000000000E+00
      0.00000000000000E+00   0.00000000000000E+00   0.00000000000000E+00   0.00000000000000E+00   0.00000000000000E+00
      3.92822502581427E-18   0.00000000000000E+00   0.00000000000000E+00   0.00000000000000E+00   0.00000000000000E+00
     -3.38261004038000E-19  -1.70379051602197E-34  -3.38261004038000E-19  -1.59282690440080E-17   2.95440437730998E-02
      2.95440435890510E-02   0.00000000000000E+00   0.00000000000000E+00   1.02025940003181E-09   4.08341062571071E-35
      1.02025940003181E-09   5.65480232728917E-18
      7.62285303264640E-02
      0.00000000000000E+00   1.87774712633979E-10   0.00000000000000E+00   0.00000000000000E+00  -1.04326551305006E-09
      1.47256362277077E-34  -1.04326551305006E-09   6.34348702716641E-18   0.00000000000000E+00   0.00000000000000E+00
      0.00000000000000E+00   0.00000000000000E+00   0.00000000000000E+00   0.00000000000000E+00   0.00000000000000E+00
      3.88989640595467E-18   0.00000000000000E+00   0.00000000000000E+00   0.00000000000000E+00   0.00000000000000E+00
     -1.09884474971975E-18  -1.79542849931263E-34  -1.09884474971975E-18  -1.59283324381282E-17   3.27782680403795E-02
      3.27782678521939E-02   0.00000000000000E+00   0.00000000000000E+00   1.04326551414891E-09   3.22864876541853E-35
      1.04326551414891E-09   5.69494900500702E-18
      8.44519842773768E-02
      0.00000000000000E+00   1.91211674698248E-10   0.00000000000000E+00   0.00000000000000E+00  -1.06246595441666E-09
      1.26668883882287E-34  -1.06246595441666E-09   6.34156890781105E-18   0.00000000000000E+00   0.00000000000000E+00
      0.00000000000000E+00   0.00000000000000E+00   0.00000000000000E+00   0.00000000000000E+00   0.00000000000000E+00
      3.84800830026640E-18   0.00000000000000E+00   0.00000000000000E+00   0.00000000000000E+00   0.00000000000000E+00
     -1.98202634997091E-18  -1.57676472117578E-34  -1.98202634997091E-18  -1.59284545174924E-17   3.63143532392720E-02
      3.63143530476425E-02   0.00000000000000E+00   0.00000000000000E+00   1.06246595639868E-09   3.10075882352906E-35
      1.06246595639868E-09   5.73887730941493E-18
      9.34429605970415E-02
      0.00000000000000E+00   1.94088267098122E-10   0.00000000000000E+00   0.00000000000000E+00  -1.07859000562237E-09
      1.29316424713211E-34  -1.07859000562237E-09   6.33947210930147E-18   0.00000000000000E+00   0.00000000000000E+00
      0.00000000000000E+00   0.00000000000000E+00   0.00000000000000E+00   0.00000000000000E+00   0.00000000000000E+00
      3.80223074047947E-18   0.00000000000000E+00   0.00000000000000E+00   0.00000000000000E+00   0.00000000000000E+00
     -3.12102298865409E-18  -1.57400942055086E-34  -3.12102298865409E-18  -1.59286483748225E-17   4.01804730567278E-02
      4.01804728622170E-02   0.00000000000000E+00   0.00000000000000E+00   1.07859000874340E-09   2.80845173418751E-35
      1.07859000874340E-09   5.78694552504157E-18
      1.03273094706542E-01
      0.00000000000000E+00   1.96569188677856E-10   0.00000000000000E+00   0.00000000000000E+00  -1.09255620416782E-09
      1.29892962921896E-34  -1.09255620416782E-09   6.33717998806255E-18   0.00000000000000E+00   0.00000000000000E+00
      0.00000000000000E+00   0.00000000000000E+00   0.00000000000000E+00   0.00000000000000E+00   0.00000000000000E+00
      3.75220311860492E-18   0.00000000000000E+00   0.00000000000000E+00   0.00000000000000E+00   0.00000000000000E+00
     -2.12351832029323E-17  -1.56004640466352E-34  -2.12351832029323E-17  -1.59289291636812E-17   4.44074307238128E-02
      4.44074305268188E-02   0.00000000000000E+00   0.00000000000000E+00   1.09255622540300E-09   2.61116775444556E-35
      1.09255622540300E-09   5.83954605701370E-18
      1.13273094706541E-01
      0.00000000000000E+00   1.98689667201778E-10   0.00000000000000E+00   0.00000000000000E+00  -1.10454510972060E-09
      1.22595377575361E-34  -1.10454510972060E-09   6.33484862917411E-18   0.00000000000000E+00   0.00000000000000E+00
      0.00000000000000E+00   0.00000000000000E+00   0.00000000000000E+00   0.00000000000000E+00   0.00000000000000E+00
      3.70133352117668E-18   0.00000000000000E+00   0.00000000000000E+00   0.00000000000000E+00   0.00000000000000E+00
     -2.01995423593065E-17  -1.43829419270999E-34  -2.01995423593065E-17  -1.59292849780768E-17   4.87074307238128E-02
      4.87074305246988E-02   0.00000000000000E+00   0.00000000000000E+00   1.10454512992014E-09   2.12340416956382E-35
      1.10454512992014E-09   5.89310282772604E-18
      1.23273094706541E-01
      0.00000000000000E+00   2.00611277408484E-10   0.00000000000000E+00   0.00000000000000E+00  -1.11544660922416E-09
      1.21461858712026E-34  -1.11544660922416E-09   6.33251761159500E-18   0.00000000000000E+00   0.00000000000000E+00
      0.00000000000000E+00   0.00000000000000E+00   0.00000000000000E+00   0.00000000000000E+00   0.00000000000000E+00
      3.65048506478747E-18   0.00000000000000E+00   0.00000000000000E+00   0.00000000000000E+00   0.00000000000000E+00
     -1.77708938675122E-17  -1.43519306660226E-34  -1.77708938675122E-17  -1.59297080291491E-17   5.30074307238128E-02
      5.30074305227800E-02   0.00000000000000E+00   0.00000000000000E+00   1.11544662699505E-09   2.20574479482002E-35
      1.11544662699505E-09   5.94670535276664E-18
      1.33273094706542E-01
      0.00000000000000E+00   2.02455800804199E-10   0.00000000000000E+00   0.00000000000000E+00  -1.12593252750087E-09
      1.61015948561585E-34  -1.12593252750087E-09   6.33018690709835E-18   0.00000000000000E+00   0.00000000000000E+00
      0.00000000000000E+00   0.00000000000000E+00   0.00000000000000E+00   0.00000000000000E+00   0.00000000000000E+00
      3.59965631562847E-18   0.00000000000000E+00   0.00000000000000E+00   0.00000000000000E+00   0.00000000000000E+00
     -1.41224835072538E-17  -1.74368543385114E-34  -1.41224835072538E-17  -1.59301949896706E-17   5.73074307238128E-02
      5.73074305209404E-02   0.00000000000000E+00   0.00000000000000E+00   1.12593254162335E-09   1.33525948235285E-35
      1.12593254162335E-09   6.00035176694365E-18
      1.43273094706542E-01
      0.00000000000000E+00   2.04283706763918E-10   0.00000000000000E+00   0.00000000000000E+00  -1.13633458737091E-09
      1.33625105031664E-34  -1.13633458737091E-09   6.32785649122744E-18   0.00000000000000E+00   0.00000000000000E+00
      0.00000000000000E+00   0.00000000000000E+00   0.00000000000000E+00   0.00000000000000E+00   0.00000000000000E+00
      3.54884596933925E-18   0.00000000000000E+00   0.00000000000000E+00   0.00000000000000E+00   0.00000000000000E+00
     -9.16621287520182E-18  -1.44525433771520E-34  -9.16621287520182E-18  -1.59307427533748E-17   6.16074307238128E-02
      6.16074305191189E-02   0.00000000000000E+00   0.00000000000000E+00   1.13633459653713E-09   1.09003287398554E-35
      1.13633459653713E-09   6.05404029280806E-18
      1.53273094706542E-01
      0.00000000000000E+00   2.06119579677676E-10   0.00000000000000E+00   0.00000000000000E+00  -1.14678654292928E-09
      1.42355838012422E-34  -1.14678654292928E-09   6.32552634242195E-18   0.00000000000000E+00   0.00000000000000E+00
      0.00000000000000E+00   0.00000000000000E+00   0.00000000000000E+00   0.00000000000000E+00   0.00000000000000E+00
      3.49805283838310E-18   0.00000000000000E+00   0.00000000000000E+00   0.00000000000000E+00   0.00000000000000E+00
     -5.39915903944883E-18  -1.56337297334417E-34  -5.39915903944883E-18  -1.59313484174140E-17   6.59074307238128E-02
      6.59074305172912E-02   0.00000000000000E+00   0.00000000000000E+00   1.14678654832844E-09   1.39814593219947E-35
      1.14678654832844E-09   6.10776923660896E-18
      1.63273094706542E-01
      0.00000000000000E+00   2.07972251409247E-10   0.00000000000000E+00   0.00000000000000E+00  -1.15733649597311E-09
      9.96550035445491E-35  -1.15733649597311E-09   6.32319644125747E-18   0.00000000000000E+00   0.00000000000000E+00
      0.00000000000000E+00   0.00000000000000E+00   0.00000000000000E+00   0.00000000000000E+00   0.00000000000000E+00
      3.44727583783540E-18   0.00000000000000E+00   0.00000000000000E+00   0.00000000000000E+00   0.00000000000000E+00
     -3.63315842340941E-18  -1.09395565712788E-34  -3.63315842340941E-18  -1.59320092632369E-17   7.02074307238129E-02
      7.02074305154482E-02   0.00000000000000E+00   0.00000000000000E+00   1.15733649960627E-09   9.74056216823920E-36
      1.15733649960627E-09   6.16153698414398E-18
      1.73273094706542E-01
      0.00000000000000E+00   2.09844694220479E-10   0.00000000000000E+00   0.00000000000000E+00  -1.16800071916658E-09
      1.04549757518390E-34  -1.16800071916658E-09   6.32086677019234E-18   0.00000000000000E+00   0.00000000000000E+00
      0.00000000000000E+00   0.00000000000000E+00   0.00000000000000E+00   0.00000000000000E+00   0.00000000000000E+00
      3.39651397768017E-18   0.00000000000000E+00   0.00000000000000E+00   0.00000000000000E+00   0.00000000000000E+00
     -3.31225089507276E-18  -1.12644618329021E-34  -3.31225089507276E-18  -1.59327227450605E-17   7.45074307238129E-02
      7.45074305135867E-02   0.00000000000000E+00   0.00000000000000E+00   1.16800072247883E-09   8.09486081063116E-36
      1.16800072247883E-09   6.21534199718801E-18
      1.83273094706542E-01
      0.00000000000000E+00   2.11736043201635E-10   0.00000000000000E+00   0.00000000000000E+00  -1.17877424221491E-09
      1.32071308885223E-34  -1.17877424221491E-09   6.31853731358585E-18   0.00000000000000E+00   0.00000000000000E+00
      0.00000000000000E+00   0.00000000000000E+00   0.00000000000000E+00   0.00000000000000E+00   0.00000000000000E+00
      3.34576635786497E-18   0.00000000000000E+00   0.00000000000000E+00   0.00000000000000E+00   0.00000000000000E+00
     -3.35250777471519E-18  -1.38209557559976E-34  -3.35250777471519E-18  -1.59334864809051E-17   7.88074307238129E-02
      7.88074305117069E-02   0.00000000000000E+00   0.00000000000000E+00   1.17877424556742E-09   6.13824867475229E-36
      1.17877424556742E-09   6.26918280945418E-18
      1.93273094706542E-01
      0.00000000000000E+00   2.13642352721267E-10   0.00000000000000E+00   0.00000000000000E+00  -1.18963504304984E-09