DF-ISE text

Info {
  version   = 1.0
  type      = xyplot
  datasets  = [
    "time"
    "source OuterVoltage" "source InnerVoltage" "source QuasiFermiPotential" "source DisplacementCurrent" "source eCurrent"
    "source hCurrent" "source TotalCurrent" "source Charge" "gate OuterVoltage" "gate InnerVoltage"
    "gate QuasiFermiPotential" "gate DisplacementCurrent" "gate eCurrent" "gate hCurrent" "gate TotalCurrent"
    "gate Charge" "substrate OuterVoltage" "substrate InnerVoltage" "substrate QuasiFermiPotential" "substrate DisplacementCurrent"
    "substrate eCurrent" "substrate hCurrent" "substrate TotalCurrent" "substrate Charge" "drain OuterVoltage"
    "drain InnerVoltage" "drain QuasiFermiPotential" "drain DisplacementCurrent" "drain eCurrent" "drain hCurrent"
    "drain TotalCurrent" "drain Charge" ]
  functions = [
    Time
    OuterVoltage InnerVoltage QuasiFermiPotential DisplacementCurrent eCurrent
    hCurrent TotalCurrent Charge OuterVoltage InnerVoltage
    QuasiFermiPotential DisplacementCurrent eCurrent hCurrent TotalCurrent
    Charge OuterVoltage InnerVoltage QuasiFermiPotential DisplacementCurrent
    eCurrent hCurrent TotalCurrent Charge OuterVoltage
    InnerVoltage QuasiFermiPotential DisplacementCurrent eCurrent hCurrent
    TotalCurrent Charge ]
}

Data {
      0.00000000000000E+00
      0.00000000000000E+00   0.00000000000000E+00   0.00000000000000E+00   0.00000000000000E+00  -3.46031286619410E-21
      9.96430187848004E-34  -3.46031286619311E-21   6.37798941848261E-18   0.00000000000000E+00   0.00000000000000E+00
      0.00000000000000E+00   0.00000000000000E+00   0.00000000000000E+00   0.00000000000000E+00   0.00000000000000E+00
      3.67103272397155E-18   0.00000000000000E+00   0.00000000000000E+00   0.00000000000000E+00   0.00000000000000E+00
      4.12851472924108E-21  -1.99314856612551E-33   4.12851472923909E-21  -1.53778062736995E-17   0.00000000000000E+00
      0.00000000000000E+00   0.00000000000000E+00   0.00000000000000E+00  -6.68201863046979E-22   9.96718378277507E-34
     -6.68201863045982E-22   5.32878413124529E-18
      0.00000000000000E+00
      0.00000000000000E+00   4.15587046187904E-19   0.00000000000000E+00   0.00000000000000E+00  -3.79801071445385E-19
      9.65667804169115E-34  -3.79801071445384E-19   6.37264221657133E-18   0.00000000000000E+00   0.00000000000000E+00
      0.00000000000000E+00   0.00000000000000E+00   0.00000000000000E+00   0.00000000000000E+00   0.00000000000000E+00
      3.66151251376719E-18   0.00000000000000E+00   0.00000000000000E+00   0.00000000000000E+00   0.00000000000000E+00
      6.54228664221586E-19  -1.97297865961972E-33   6.54228664221584E-19  -1.53588469084703E-17   0.00000000000000E+00
      8.31174092375808E-19   0.00000000000000E+00   0.00000000000000E+00  -2.74427592776201E-19   1.00731085545060E-33
     -2.74427592776200E-19   5.32469217813175E-18
      1.00000000000000E-03
      0.00000000000000E+00   1.13813748995339E-12   0.00000000000000E+00   0.00000000000000E+00  -6.94981821069948E-12
      9.54087094366771E-34  -6.94981821069948E-12   6.37260689587183E-18   0.00000000000000E+00   0.00000000000000E+00
      0.00000000000000E+00   0.00000000000000E+00   0.00000000000000E+00   0.00000000000000E+00   0.00000000000000E+00
      3.66090242517413E-18   0.00000000000000E+00   0.00000000000000E+00   0.00000000000000E+00   0.00000000000000E+00
     -6.74129717271936E-20  -1.97899872883899E-33  -6.74129717271956E-20  -1.53588409680211E-17   5.00000000000000E-05
      4.99999988507934E-05   0.00000000000000E+00   0.00000000000000E+00   6.94981827811245E-12   1.02491163447222E-33
      6.94981827811245E-12   5.32533164697511E-18
      2.09333333333333E-03
      0.00000000000000E+00   2.37874295318897E-12   0.00000000000000E+00   0.00000000000000E+00  -1.45254165813107E-11
      9.70852005371346E-34  -1.45254165813107E-11   6.37256827880763E-18   0.00000000000000E+00   0.00000000000000E+00
      0.00000000000000E+00   0.00000000000000E+00   0.00000000000000E+00   0.00000000000000E+00   0.00000000000000E+00
      3.66023540347893E-18   0.00000000000000E+00   0.00000000000000E+00   0.00000000000000E+00   0.00000000000000E+00
     -6.35561623118257E-21  -1.98088102122331E-33  -6.35561623118455E-21  -1.53588344928664E-17   1.04666666666667E-04
      1.04666664264780E-04   0.00000000000000E+00   0.00000000000000E+00   1.45254165876663E-11   1.01002901585196E-33
      1.45254165876663E-11   5.32603081057982E-18
      3.29600000000000E-03
      0.00000000000000E+00   3.73873701629227E-12   0.00000000000000E+00   0.00000000000000E+00  -2.28299708171312E-11
      9.83517266388328E-34  -2.28299708171312E-11   6.37252580031947E-18   0.00000000000000E+00   0.00000000000000E+00
      0.00000000000000E+00   0.00000000000000E+00   0.00000000000000E+00   0.00000000000000E+00   0.00000000000000E+00
      3.65950168985903E-18   0.00000000000000E+00   0.00000000000000E+00   0.00000000000000E+00   0.00000000000000E+00
      3.68938982419369E-20  -1.99840943802215E-33   3.68938982419349E-20  -1.53588273939870E-17   1.64800000000000E-04
      1.64799996224901E-04   0.00000000000000E+00   0.00000000000000E+00   2.28299707802373E-11   1.01489217163383E-33
      2.28299707802373E-11   5.32679990380858E-18
      4.61893333333333E-03
      0.00000000000000E+00   5.22895070886104E-12   0.00000000000000E+00   0.00000000000000E+00  -3.19296774377031E-11
      1.00522662455051E-33  -3.19296774377031E-11   6.37247907432480E-18   0.00000000000000E+00   0.00000000000000E+00
      0.00000000000000E+00   0.00000000000000E+00   0.00000000000000E+00   0.00000000000000E+00   0.00000000000000E+00
      3.65869461726091E-18   0.00000000000000E+00   0.00000000000000E+00   0.00000000000000E+00   0.00000000000000E+00
      1.18240369279218E-20  -1.99370443252195E-33   1.18240369279198E-20  -1.53588196139819E-17   2.30946666666667E-04
      2.30946661386868E-04   0.00000000000000E+00   0.00000000000000E+00   3.19296774258791E-11   9.88477807971437E-34
      3.19296774258791E-11   5.32764592239615E-18
      6.07416000000000E-03
      0.00000000000000E+00   6.86109444268276E-12   0.00000000000000E+00   0.00000000000000E+00  -4.18960522771847E-11
      9.79566849089018E-34  -4.18960522771847E-11   6.37242767614517E-18   0.00000000000000E+00   0.00000000000000E+00
      0.00000000000000E+00   0.00000000000000E+00   0.00000000000000E+00   0.00000000000000E+00   0.00000000000000E+00
      3.65780685237053E-18   0.00000000000000E+00   0.00000000000000E+00   0.00000000000000E+00   0.00000000000000E+00
      1.84626497532111E-19  -1.97665696797231E-33   1.84626497532109E-19  -1.53588110907450E-17   3.03708000000000E-04
      3.03707993072189E-04   0.00000000000000E+00   0.00000000000000E+00   4.18960520925582E-11   9.97090118883293E-34
      4.18960520925582E-11   5.32857656222928E-18
      7.67490933333333E-03
      0.00000000000000E+00   8.64779375222063E-12   0.00000000000000E+00   0.00000000000000E+00  -5.28061380730375E-11
      1.01607891665804E-33  -5.28061380730375E-11   6.37237113864933E-18   0.00000000000000E+00   0.00000000000000E+00
      0.00000000000000E+00   0.00000000000000E+00   0.00000000000000E+00   0.00000000000000E+00   0.00000000000000E+00
      3.65683032907945E-18   0.00000000000000E+00   0.00000000000000E+00   0.00000000000000E+00   0.00000000000000E+00
      3.11652728729196E-21  -2.03641061227222E-33   3.11652728728993E-21  -1.53588017572108E-17   3.83745466666667E-04
      3.83745457934793E-04   0.00000000000000E+00   0.00000000000000E+00   5.28061380699210E-11   1.02033169561417E-33
      5.28061380699210E-11   5.32960028948205E-18
      9.43573360000000E-03
      0.00000000000000E+00   1.06026030089861E-11   0.00000000000000E+00   0.00000000000000E+00  -6.47427028225400E-11
      9.80950740488343E-34  -6.47427028225400E-11   6.37230894801101E-18   0.00000000000000E+00   0.00000000000000E+00
      0.00000000000000E+00   0.00000000000000E+00   0.00000000000000E+00   0.00000000000000E+00   0.00000000000000E+00
      3.65575617531629E-18   0.00000000000000E+00   0.00000000000000E+00   0.00000000000000E+00   0.00000000000000E+00
      1.68475933236484E-20  -1.98611349199455E-33   1.68475933236464E-20  -1.53587915411168E-17   4.71786680000000E-04
      4.71786669294325E-04   0.00000000000000E+00   0.00000000000000E+00   6.47427028056923E-11   1.00516275150621E-33
      6.47427028056923E-11   5.33072641778952E-18
      1.13726402933333E-02
      0.00000000000000E+00   1.27400291100003E-11   0.00000000000000E+00   0.00000000000000E+00  -7.77943949338034E-11
      9.74431883486098E-34  -7.77943949338034E-11   6.37224053904325E-18   0.00000000000000E+00   0.00000000000000E+00
      0.00000000000000E+00   0.00000000000000E+00   0.00000000000000E+00   0.00000000000000E+00   0.00000000000000E+00
      3.65457463258433E-18   0.00000000000000E+00   0.00000000000000E+00   0.00000000000000E+00   0.00000000000000E+00
      4.50580706575709E-20  -1.97632733002929E-33   4.50580706575689E-20  -1.53587803647964E-17   5.68632014666667E-04
      5.68632001802797E-04   0.00000000000000E+00   0.00000000000000E+00   7.77943948887454E-11   1.00189544654320E-33
      7.77943948887454E-11   5.33196519316887E-18
      1.35032376560000E-02
      0.00000000000000E+00   1.50755884132199E-11   0.00000000000000E+00   0.00000000000000E+00  -9.20558403608249E-11
      1.00022560073372E-33  -9.20558403608249E-11   6.37216529006680E-18   0.00000000000000E+00   0.00000000000000E+00
      0.00000000000000E+00   0.00000000000000E+00   0.00000000000000E+00   0.00000000000000E+00   0.00000000000000E+00
      3.65327496747998E-18   0.00000000000000E+00   0.00000000000000E+00   0.00000000000000E+00   0.00000000000000E+00
      9.10265902566087E-20  -2.01781145028706E-33   9.10265902566067E-20  -1.53587681450152E-17   6.75161882800000E-04
      6.75161867577886E-04   0.00000000000000E+00   0.00000000000000E+00   9.20558402697984E-11   1.01758584955334E-33
      9.20558402697984E-11   5.33332788746838E-18
      1.58468947549333E-02
      0.00000000000000E+00   1.76257585294391E-11   0.00000000000000E+00   0.00000000000000E+00  -1.07627656214116E-10
      9.81402170256922E-34  -1.07627656214116E-10   6.37208251726645E-18   0.00000000000000E+00   0.00000000000000E+00
      0.00000000000000E+00   0.00000000000000E+00   0.00000000000000E+00   0.00000000000000E+00   0.00000000000000E+00
      3.65184537439692E-18   0.00000000000000E+00   0.00000000000000E+00   0.00000000000000E+00   0.00000000000000E+00
      1.12285059656827E-19  -1.97580126329219E-33   1.12285059656825E-19  -1.53587547928688E-17   7.92344737746667E-04
      7.92344719949615E-04   0.00000000000000E+00   0.00000000000000E+00   1.07627656101831E-10   9.94399093035266E-34
      1.07627656101831E-10   5.33482690120540E-18
      1.84249175637600E-02
      0.00000000000000E+00   2.04079845560958E-11   0.00000000000000E+00   0.00000000000000E+00  -1.24616374065566E-10
      9.93735918338855E-34  -1.24616374065566E-10   6.37199146848393E-18   0.00000000000000E+00   0.00000000000000E+00
      0.00000000000000E+00   0.00000000000000E+00   0.00000000000000E+00   0.00000000000000E+00   0.00000000000000E+00
      3.65027286853464E-18   0.00000000000000E+00   0.00000000000000E+00   0.00000000000000E+00   0.00000000000000E+00
     -6.01046438249567E-19  -1.99289651086163E-33  -6.01046438249569E-19  -1.53587402137570E-17   9.21245878188001E-04
      9.21245857581717E-04   0.00000000000000E+00   0.00000000000000E+00   1.24616374666612E-10   9.99160592522773E-34
      1.24616374666612E-10   5.33647587673845E-18
      2.12607426534693E-02
      0.00000000000000E+00   2.34406566355707E-11   0.00000000000000E+00   0.00000000000000E+00  -1.43134204261193E-10
      1.00123087215911E-33  -1.43134204261193E-10   6.37189131639137E-18   0.00000000000000E+00   0.00000000000000E+00
      0.00000000000000E+00   0.00000000000000E+00   0.00000000000000E+00   0.00000000000000E+00   0.00000000000000E+00
      3.64854316826190E-18   0.00000000000000E+00   0.00000000000000E+00   0.00000000000000E+00   0.00000000000000E+00
      2.51259495523413E-19  -1.98808903254521E-33   2.51259495523411E-19  -1.53587243074738E-17   1.06303713267347E-03
      1.06303710900508E-03   0.00000000000000E+00   0.00000000000000E+00   1.43134204009934E-10   9.86858160386100E-34
      1.43134204009934E-10   5.33828982282058E-18
      2.43801502521496E-02
      0.00000000000000E+00   2.67430093831227E-11   0.00000000000000E+00   0.00000000000000E+00  -1.63298644852479E-10
      9.54544976443778E-34  -1.63298644852479E-10   6.37178115098405E-18   0.00000000000000E+00   0.00000000000000E+00
      0.00000000000000E+00   0.00000000000000E+00   0.00000000000000E+00   0.00000000000000E+00   0.00000000000000E+00
      3.64664056577022E-18   0.00000000000000E+00   0.00000000000000E+00   0.00000000000000E+00   0.00000000000000E+00
      9.20309249546204E-19  -1.90661787031766E-33   9.20309249546202E-19  -1.53587069684376E-17   1.21900751260748E-03
      1.21900748560469E-03   0.00000000000000E+00   0.00000000000000E+00   1.63298643932169E-10   9.52072893873883E-34
      1.63298643932169E-10   5.34028525168338E-18
      2.78114986106979E-02
      0.00000000000000E+00   3.03350732632039E-11   0.00000000000000E+00   0.00000000000000E+00  -1.85231879052692E-10
      9.76949929528768E-34  -1.85231879052692E-10   6.37165997132392E-18   0.00000000000000E+00   0.00000000000000E+00
      0.00000000000000E+00   0.00000000000000E+00   0.00000000000000E+00   0.00000000000000E+00   0.00000000000000E+00
      3.64454778485959E-18   0.00000000000000E+00   0.00000000000000E+00   0.00000000000000E+00   0.00000000000000E+00
      9.42278618306890E-19  -1.94277942769829E-33   9.42278618306888E-19  -1.53586880861030E-17   1.39057493053490E-03
      1.39057489990519E-03   0.00000000000000E+00   0.00000000000000E+00   1.85231878110414E-10   9.65829498169526E-34
      1.85231878110414E-10   5.34248032991949E-18
      3.15859818051010E-02
      0.00000000000000E+00   3.42374971337911E-11   0.00000000000000E+00   0.00000000000000E+00  -2.09059926373647E-10
      9.49536747949564E-34  -2.09059926373647E-10   6.37152667645997E-18   0.00000000000000E+00   0.00000000000000E+00
      0.00000000000000E+00   0.00000000000000E+00   0.00000000000000E+00   0.00000000000000E+00   0.00000000000000E+00
      3.64224582458601E-18   0.00000000000000E+00   0.00000000000000E+00   0.00000000000000E+00   0.00000000000000E+00
      8.67935314383427E-18  -1.92340539550403E-33   8.67935314383427E-18  -1.53586675456083E-17   1.57929909025505E-03
      1.57929905568509E-03   0.00000000000000E+00   0.00000000000000E+00   2.09059917694294E-10   9.73868647554460E-34
      2.09059917694294E-10   5.34489504456220E-18
      3.57379133189445E-02
      0.00000000000000E+00   3.84713587386930E-11   0.00000000000000E+00   0.00000000000000E+00  -2.34911458089779E-10
      9.74402586477468E-34  -2.34911458089779E-10   6.37138005544324E-18   0.00000000000000E+00   0.00000000000000E+00
      0.00000000000000E+00   0.00000000000000E+00   0.00000000000000E+00   0.00000000000000E+00   0.00000000000000E+00
      3.63971378736290E-18   0.00000000000000E+00   0.00000000000000E+00   0.00000000000000E+00   0.00000000000000E+00
     -1.32532716997353E-18  -1.91880383549064E-33  -1.32532716997353E-18  -1.53586452287070E-17   1.78689566594722E-03
      1.78689562710235E-03   0.00000000000000E+00   0.00000000000000E+00   2.34911459415106E-10   9.44401249013172E-34
      2.34911459415106E-10   5.34755138590087E-18
      4.03050379841723E-02
      0.00000000000000E+00   4.30579502646340E-11   0.00000000000000E+00   0.00000000000000E+00  -2.62916364900372E-10
      9.58258355798400E-34  -2.62916364900372E-10   6.37121877634647E-18   0.00000000000000E+00   0.00000000000000E+00
      0.00000000000000E+00   0.00000000000000E+00   0.00000000000000E+00   0.00000000000000E+00   0.00000000000000E+00
      3.63692868999296E-18   0.00000000000000E+00   0.00000000000000E+00   0.00000000000000E+00   0.00000000000000E+00
      1.48721893878710E-17  -1.89841350998317E-33   1.48721893878710E-17  -1.53586210150733E-17   2.01525189920861E-03
      2.01525185573271E-03   0.00000000000000E+00   0.00000000000000E+00   2.62916350028183E-10   9.40155154184775E-34
      2.62916350028183E-10   5.35047354873387E-18
      4.53288751159228E-02
      0.00000000000000E+00   4.80184147025887E-11   0.00000000000000E+00   0.00000000000000E+00  -2.93203673583954E-10
      9.81531834307156E-34  -2.93203673583954E-10   6.37104137418986E-18   0.00000000000000E+00   0.00000000000000E+00
      0.00000000000000E+00   0.00000000000000E+00   0.00000000000000E+00   0.00000000000000E+00   0.00000000000000E+00
      3.63386525593883E-18   0.00000000000000E+00   0.00000000000000E+00   0.00000000000000E+00   0.00000000000000E+00
      2.21397694513069E-18  -1.91674415903155E-33   2.21397694513068E-18  -1.53585947840625E-17   2.26644375579614E-03
      2.26644370731173E-03   0.00000000000000E+00   0.00000000000000E+00   2.93203671369978E-10   9.35212324724395E-34
      2.93203671369978E-10   5.35368815393382E-18
      5.08550959608485E-02
      0.00000000000000E+00   5.33733946767285E-11   0.00000000000000E+00   0.00000000000000E+00  -3.25899277956777E-10
      9.89865164728969E-34  -3.25899277956777E-10   6.37084623766353E-18   0.00000000000000E+00   0.00000000000000E+00
      0.00000000000000E+00   0.00000000000000E+00   0.00000000000000E+00   0.00000000000000E+00   0.00000000000000E+00
      3.63049568698889E-18   0.00000000000000E+00   0.00000000000000E+00   0.00000000000000E+00   0.00000000000000E+00
      1.04422274944613E-18  -1.92794420586966E-33   1.04422274944613E-18  -1.53585664170456E-17   2.54275479804242E-03
      2.54275474415118E-03   0.00000000000000E+00   0.00000000000000E+00   3.25899276912555E-10   9.38079041140686E-34
      3.25899276912555E-10   5.35722449239316E-18
      5.69339388902666E-02
      0.00000000000000E+00   5.91425092203298E-11   0.00000000000000E+00   0.00000000000000E+00  -3.61122856606276E-10
      1.00431309502928E-33  -3.61122856606276E-10   6.37063159452751E-18   0.00000000000000E+00   0.00000000000000E+00
      0.00000000000000E+00   0.00000000000000E+00   0.00000000000000E+00   0.00000000000000E+00   0.00000000000000E+00
      3.62678941225765E-18   0.00000000000000E+00   0.00000000000000E+00   0.00000000000000E+00   0.00000000000000E+00
      3.80177569369383E-18  -1.93940175096505E-33   3.80177569369383E-18  -1.53585358004058E-17   2.84669694451333E-03
      2.84669688479715E-03   0.00000000000000E+00   0.00000000000000E+00   3.61122852804501E-10   9.35088655935772E-34
      3.61122852804501E-10   5.36111479362062E-18
      6.36206661126266E-02
      0.00000000000000E+00   6.53437806812375E-11   0.00000000000000E+00   0.00000000000000E+00  -3.98984319999065E-10
      9.76180344982736E-34  -3.98984319999065E-10   6.37039549555857E-18   0.00000000000000E+00   0.00000000000000E+00
      0.00000000000000E+00   0.00000000000000E+00   0.00000000000000E+00   0.00000000000000E+00   0.00000000000000E+00
      3.62271281234217E-18   0.00000000000000E+00   0.00000000000000E+00   0.00000000000000E+00   0.00000000000000E+00
      2.29611811639431E-18  -1.89282264826741E-33   2.29611811639430E-18  -1.53585028294235E-17   3.18103330563133E-03
      3.18103323965389E-03   0.00000000000000E+00   0.00000000000000E+00   3.98984317702948E-10   9.16642303284680E-34
      3.98984317702948E-10   5.36539452152281E-18
      7.09760660572226E-02
      0.00000000000000E+00   7.19929485876520E-11   0.00000000000000E+00   0.00000000000000E+00  -4.39579490432078E-10
      1.01410520843836E-33  -4.39579490432078E-10   6.37013579689867E-18   0.00000000000000E+00   0.00000000000000E+00
      0.00000000000000E+00   0.00000000000000E+00   0.00000000000000E+00   0.00000000000000E+00   0.00000000000000E+00
      3.61822891614961E-18   0.00000000000000E+00   0.00000000000000E+00   0.00000000000000E+00   0.00000000000000E+00
      9.68811936353263E-18  -1.91972074838457E-33   9.68811936353262E-18  -1.53584674131785E-17   3.54880330286113E-03
      3.54880323017024E-03   0.00000000000000E+00   0.00000000000000E+00   4.39579480743958E-10   9.05615539946204E-34
      4.39579480743958E-10   5.37010270013016E-18
      7.90670059962782E-02
      0.00000000000000E+00   7.91026176946841E-11   0.00000000000000E+00   0.00000000000000E+00  -4.82985162601005E-10
      9.78597607480353E-34  -4.82985162601005E-10   6.36985014064644E-18   0.00000000000000E+00   0.00000000000000E+00
      0.00000000000000E+00   0.00000000000000E+00   0.00000000000000E+00   0.00000000000000E+00   0.00000000000000E+00
      3.61329706770121E-18   0.00000000000000E+00   0.00000000000000E+00   0.00000000000000E+00   0.00000000000000E+00
      2.16335029249805E-17  -1.86247890649678E-33   2.16335029249805E-17  -1.53584294806862E-17   3.95335029981391E-03
      3.95335021994466E-03   0.00000000000000E+00   0.00000000000000E+00   4.82985140967501E-10   8.83881299016434E-34
      4.82985140967501E-10   5.37528227233854E-18
      8.79670399292394E-02
      0.00000000000000E+00   8.66813324720034E-11   0.00000000000000E+00   0.00000000000000E+00  -5.29253253758321E-10
      1.01209855327646E-33  -5.29253253758321E-10   6.36953593351904E-18   0.00000000000000E+00   0.00000000000000E+00
      0.00000000000000E+00   0.00000000000000E+00   0.00000000000000E+00   0.00000000000000E+00   0.00000000000000E+00
      3.60787256001901E-18   0.00000000000000E+00   0.00000000000000E+00   0.00000000000000E+00   0.00000000000000E+00
      2.01102348647698E-17  -1.87461473122777E-33   2.01102348647698E-17  -1.53583889885980E-17   4.39835199646197E-03
      4.39835190894084E-03   0.00000000000000E+00   0.00000000000000E+00   5.29253233648086E-10   8.62516177951301E-34
      5.29253233648086E-10   5.38098049505993E-18
      9.77570772554967E-02
      0.00000000000000E+00   9.47325156945224E-11   0.00000000000000E+00   0.00000000000000E+00  -5.78404488028339E-10
      9.71365594777193E-34  -5.78404488028339E-10   6.36919032338984E-18   0.00000000000000E+00   0.00000000000000E+00
      0.00000000000000E+00   0.00000000000000E+00   0.00000000000000E+00   0.00000000000000E+00   0.00000000000000E+00
      3.60190623277271E-18   0.00000000000000E+00   0.00000000000000E+00   0.00000000000000E+00   0.00000000000000E+00
      2.90341581073050E-17  -1.83405753383626E-33   2.90341581073050E-17  -1.53583459306563E-17   4.88785386277484E-03
      4.88785376712483E-03   0.00000000000000E+00   0.00000000000000E+00   5.78404458994181E-10   8.62691939059072E-34
      5.78404458994181E-10   5.38724937449378E-18
      1.07757077255497E-01
      0.00000000000000E+00   1.02656235876453E-10   0.00000000000000E+00   0.00000000000000E+00  -6.26776173973197E-10
      9.95033961179049E-34  -6.26776173973197E-10   6.36883732010677E-18   0.00000000000000E+00   0.00000000000000E+00
      0.00000000000000E+00   0.00000000000000E+00   0.00000000000000E+00   0.00000000000000E+00   0.00000000000000E+00
      3.59581262549664E-18   0.00000000000000E+00   0.00000000000000E+00   0.00000000000000E+00   0.00000000000000E+00
      3.34619049553441E-17  -1.86327304525281E-33   3.34619049553441E-17  -1.53583035428430E-17   5.38785386277483E-03
      5.38785375912471E-03   0.00000000000000E+00   0.00000000000000E+00   6.26776140511291E-10   8.68239084073764E-34
      6.26776140511291E-10   5.39365359723960E-18
      1.17757077255497E-01
      0.00000000000000E+00   1.10285580376849E-10   0.00000000000000E+00   0.00000000000000E+00  -6.73349474506957E-10
      9.65230573329889E-34  -6.73349474506957E-10   6.36848433585420E-18   0.00000000000000E+00   0.00000000000000E+00
      0.00000000000000E+00   0.00000000000000E+00   0.00000000000000E+00   0.00000000000000E+00   0.00000000000000E+00
      3.58971969690511E-18   0.00000000000000E+00   0.00000000000000E+00   0.00000000000000E+00   0.00000000000000E+00
      3.34904570692161E-17  -1.80794005490121E-33   3.34904570692161E-17  -1.53582627543181E-17   5.88785386277483E-03
      5.88785375142187E-03   0.00000000000000E+00   0.00000000000000E+00   6.73349441016500E-10   8.42709481571319E-34
      6.73349441016500E-10   5.40005872155884E-18
      1.27757077255497E-01
      0.00000000000000E+00   1.17629497200400E-10   0.00000000000000E+00   0.00000000000000E+00  -7.18179203742703E-10
      9.70011842170876E-34  -7.18179203742703E-10   6.36813137046283E-18   0.00000000000000E+00   0.00000000000000E+00
      0.00000000000000E+00   0.00000000000000E+00   0.00000000000000E+00   0.00000000000000E+00   0.00000000000000E+00
      3.58362744130152E-18   0.00000000000000E+00   0.00000000000000E+00   0.00000000000000E+00   0.00000000000000E+00
      3.19818524074370E-17  -1.78778820739911E-33   3.19818524074370E-17  -1.53582235538828E-17   6.38785386277483E-03
      6.38785374400726E-03   0.00000000000000E+00   0.00000000000000E+00   7.18179171760851E-10   8.17776365228233E-34
      7.18179171760851E-10   5.40646474211844E-18
      1.37757077255497E-01
      0.00000000000000E+00   1.24696849987628E-10   0.00000000000000E+00   0.00000000000000E+00  -7.61319576164384E-10
      9.95422273233045E-34  -7.61319576164384E-10   6.36777842376351E-18   0.00000000000000E+00   0.00000000000000E+00
      0.00000000000000E+00   0.00000000000000E+00   0.00000000000000E+00   0.00000000000000E+00   0.00000000000000E+00
      3.57753585304843E-18   0.00000000000000E+00   0.00000000000000E+00   0.00000000000000E+00   0.00000000000000E+00
      3.24787158247185E-17  -1.78687468730180E-33   3.24787158247185E-17  -1.53581859304383E-17   6.88785386277483E-03
      6.88785373687192E-03   0.00000000000000E+00   0.00000000000000E+00   7.61319543685668E-10   7.91452414068757E-34
      7.61319543685668E-10   5.41287165362629E-18
      1.47757077255497E-01
      0.00000000000000E+00   1.31496361079458E-10   0.00000000000000E+00   0.00000000000000E+00  -8.02824025024245E-10
      9.67455999167267E-34  -8.02824025024245E-10   6.36742549558762E-18   0.00000000000000E+00   0.00000000000000E+00
      0.00000000000000E+00   0.00000000000000E+00   0.00000000000000E+00   0.00000000000000E+00   0.00000000000000E+00
      3.57144492657797E-18   0.00000000000000E+00   0.00000000000000E+00   0.00000000000000E+00   0.00000000000000E+00
      3.07204425826464E-17  -1.75391915173134E-33   3.07204425826464E-17  -1.53581498730065E-17   7.38785386277483E-03
      7.38785373000706E-03   0.00000000000000E+00   0.00000000000000E+00   8.02823994303802E-10   7.86463152564072E-34
      8.02823994303802E-10   5.41927945084082E-18
      1.57757077255497E-01
      0.00000000000000E+00   1.38036639777140E-10   0.00000000000000E+00   0.00000000000000E+00  -8.42745139086216E-10
      9.94329069528985E-34  -8.42745139086216E-10   6.36707258576527E-18   0.00000000000000E+00   0.00000000000000E+00
      0.00000000000000E+00   0.00000000000000E+00   0.00000000000000E+00   0.00000000000000E+00   0.00000000000000E+00
      3.56535465633561E-18   0.00000000000000E+00   0.00000000000000E+00   0.00000000000000E+00   0.00000000000000E+00
      2.99266957399043E-17  -1.75545782339331E-33   2.99266957399043E-17  -1.53581153706280E-17   7.88785386277484E-03
      7.88785372340398E-03   0.00000000000000E+00   0.00000000000000E+00   8.42745109159519E-10   7.61128753864326E-34
      8.42745109159519E-10   5.42568812852704E-18
      1.67757077255497E-01
      0.00000000000000E+00   1.44326104627467E-10   0.00000000000000E+00   0.00000000000000E+00  -8.81134517903276E-10
      9.84245423158882E-34  -8.81134517903276E-10   6.36671969412810E-18   0.00000000000000E+00   0.00000000000000E+00
      0.00000000000000E+00   0.00000000000000E+00   0.00000000000000E+00   0.00000000000000E+00   0.00000000000000E+00
      3.55926503682729E-18   0.00000000000000E+00   0.00000000000000E+00   0.00000000000000E+00   0.00000000000000E+00
      2.75821634862545E-17  -1.77039883182140E-33   2.75821634862545E-17  -1.53580824124490E-17   8.38785386277484E-03
      8.38785371705418E-03   0.00000000000000E+00   0.00000000000000E+00   8.81134490321113E-10   7.86153408662521E-34
      8.81134490321113E-10   5.43209768149357E-18
      1.77757077255497E-01
      0.00000000000000E+00   1.50373031630878E-10   0.00000000000000E+00   0.00000000000000E+00  -9.18042777647917E-10
      9.81971751608087E-34  -9.18042777647917E-10   6.36636682050670E-18   0.00000000000000E+00   0.00000000000000E+00
      0.00000000000000E+00   0.00000000000000E+00   0.00000000000000E+00   0.00000000000000E+00   0.00000000000000E+00
      3.55317606257056E-18   0.00000000000000E+00   0.00000000000000E+00   0.00000000000000E+00   0.00000000000000E+00
      3.04046990687903E-17  -1.74566456272075E-33   3.04046990687903E-17  -1.53580509876482E-17   8.88785386277484E-03
      8.88785371094928E-03   0.00000000000000E+00   0.00000000000000E+00   9.18042747243218E-10   7.63692811112667E-34
      9.18042747243218E-10   5.43850810457085E-18
      1.87757077255497E-01
      0.00000000000000E+00   1.56185514760685E-10   0.00000000000000E+00   0.00000000000000E+00  -9.53519410365643E-10
      9.52116091252327E-34  -9.53519410365643E-10   6.36601396473213E-18   0.00000000000000E+00   0.00000000000000E+00
      0.00000000000000E+00   0.00000000000000E+00   0.00000000000000E+00   0.00000000000000E+00   0.00000000000000E+00
      3.54708772813358E-18   0.00000000000000E+00   0.00000000000000E+00   0.00000000000000E+00   0.00000000000000E+00
      2.98809609263936E-17  -1.65940271896246E-33   2.98809609263936E-17  -1.53580210854868E-17   9.38785386277484E-03
      9.38785370508114E-03   0.00000000000000E+00   0.00000000000000E+00   9.53519380484681E-10   7.07286627710134E-34
      9.53519380484681E-10   5.44491939262109E-18
      1.97757077255497E-01
      0.00000000000000E+00   1.61771429391411E-10   0.00000000000000E+00   0.00000000000000E+00  -9.87612661027371E-10