DF-ISE text

Info {
  version   = 1.0
  type      = xyplot
  datasets  = [
    "time"
    "source OuterVoltage" "source InnerVoltage" "source QuasiFermiPotential" "source DisplacementCurrent" "source eCurrent"
    "source hCurrent" "source TotalCurrent" "source Charge" "gate OuterVoltage" "gate InnerVoltage"
    "gate QuasiFermiPotential" "gate DisplacementCurrent" "gate eCurrent" "gate hCurrent" "gate TotalCurrent"
    "gate Charge" "substrate OuterVoltage" "substrate InnerVoltage" "substrate QuasiFermiPotential" "substrate DisplacementCurrent"
    "substrate eCurrent" "substrate hCurrent" "substrate TotalCurrent" "substrate Charge" "drain OuterVoltage"
    "drain InnerVoltage" "drain QuasiFermiPotential" "drain DisplacementCurrent" "drain eCurrent" "drain hCurrent"
    "drain TotalCurrent" "drain Charge" ]
  functions = [
    Time
    OuterVoltage InnerVoltage QuasiFermiPotential DisplacementCurrent eCurrent
    hCurrent TotalCurrent Charge OuterVoltage InnerVoltage
    QuasiFermiPotential DisplacementCurrent eCurrent hCurrent TotalCurrent
    Charge OuterVoltage InnerVoltage QuasiFermiPotential DisplacementCurrent
    eCurrent hCurrent TotalCurrent Charge OuterVoltage
    InnerVoltage QuasiFermiPotential DisplacementCurrent eCurrent hCurrent
    TotalCurrent Charge ]
}

Data {
      0.00000000000000E+00
      0.00000000000000E+00   0.00000000000000E+00   0.00000000000000E+00   0.00000000000000E+00  -2.14700040354188E-19
      2.86464730575985E-34  -2.14700040354187E-19   7.80590232078179E-18   0.00000000000000E+00   0.00000000000000E+00
      0.00000000000000E+00   0.00000000000000E+00   0.00000000000000E+00   0.00000000000000E+00   0.00000000000000E+00
      4.44752796332894E-18   0.00000000000000E+00   0.00000000000000E+00   0.00000000000000E+00   0.00000000000000E+00
      2.14445420261489E-19  -4.52701283796565E-34   2.14445420261489E-19  -1.80878906445655E-17   0.00000000000000E+00
      0.00000000000000E+00   0.00000000000000E+00   0.00000000000000E+00   2.54620092698238E-22   1.66236553220580E-34
      2.54620092698404E-22   5.83446036045481E-18
      0.00000000000000E+00
      0.00000000000000E+00   8.42612267958961E-19   0.00000000000000E+00   0.00000000000000E+00  -3.67399213430453E-17
      3.28305281203030E-34  -3.67399213430453E-17   7.80062522108513E-18   0.00000000000000E+00   0.00000000000000E+00
      0.00000000000000E+00   0.00000000000000E+00   0.00000000000000E+00   0.00000000000000E+00   0.00000000000000E+00
      4.43780840124966E-18   0.00000000000000E+00   0.00000000000000E+00   0.00000000000000E+00   0.00000000000000E+00
      3.70031449616631E-17  -4.41373379181688E-34   3.70031449616631E-17  -1.80686260710718E-17   0.00000000000000E+00
      0.00000000000000E+00   0.00000000000000E+00   0.00000000000000E+00  -2.63223618617798E-19   1.13068097978658E-34
     -2.63223618617798E-19   5.83019244873705E-18
      1.00000000000000E-03
      0.00000000000000E+00   7.99016773133166E-13   0.00000000000000E+00   0.00000000000000E+00  -4.86871151799382E-12
      2.14759029781106E-34  -4.86871151799382E-12   7.80058951392201E-18   0.00000000000000E+00   0.00000000000000E+00
      0.00000000000000E+00   0.00000000000000E+00   0.00000000000000E+00   0.00000000000000E+00   0.00000000000000E+00
      4.43717828693417E-18   0.00000000000000E+00   0.00000000000000E+00   0.00000000000000E+00   0.00000000000000E+00
     -1.37816815981875E-18  -3.76748169377968E-34  -1.37816815981876E-18  -1.80686240408389E-17   5.00000000000000E-05
      4.99999992021407E-05   0.00000000000000E+00   0.00000000000000E+00   4.86871289616197E-12   1.61989139596862E-34
      4.86871289616197E-12   5.83085623998275E-18
      2.09333333333333E-03
      0.00000000000000E+00   1.67000864358312E-12   0.00000000000000E+00   0.00000000000000E+00  -1.01760234578184E-11
      2.47670645046604E-34  -1.01760234578184E-11   7.80055047425730E-18   0.00000000000000E+00   0.00000000000000E+00
      0.00000000000000E+00   0.00000000000000E+00   0.00000000000000E+00   0.00000000000000E+00   0.00000000000000E+00
      4.43648936927798E-18   0.00000000000000E+00   0.00000000000000E+00   0.00000000000000E+00   0.00000000000000E+00
     -2.87848874750898E-18  -4.02808325837046E-34  -2.87848874750898E-18  -1.80686218389961E-17   1.04666666666667E-04
      1.04666664999068E-04   0.00000000000000E+00   0.00000000000000E+00   1.01760263363072E-11   1.55137680790442E-34
      1.01760263363072E-11   5.83158199546092E-18
      3.29600000000000E-03
      0.00000000000000E+00   2.62486487045076E-12   0.00000000000000E+00   0.00000000000000E+00  -1.59943139505086E-11
      2.26815368185406E-34  -1.59943139505086E-11   7.80050753082740E-18   0.00000000000000E+00   0.00000000000000E+00
      0.00000000000000E+00   0.00000000000000E+00   0.00000000000000E+00   0.00000000000000E+00   0.00000000000000E+00
      4.43573156868904E-18   0.00000000000000E+00   0.00000000000000E+00   0.00000000000000E+00   0.00000000000000E+00
     -3.87912876355395E-18  -3.27434042780503E-34  -3.87912876355395E-18  -1.80686194385204E-17   1.64800000000000E-04
      1.64799997378928E-04   0.00000000000000E+00   0.00000000000000E+00   1.59943178296374E-11   1.00618674595097E-34
      1.59943178296374E-11   5.83238033900404E-18
      4.61893333333333E-03
      0.00000000000000E+00   3.67120772431204E-12   0.00000000000000E+00   0.00000000000000E+00  -2.23700720489900E-11
      2.95595588717054E-34  -2.23700720489900E-11   7.80046029329829E-18   0.00000000000000E+00   0.00000000000000E+00
      0.00000000000000E+00   0.00000000000000E+00   0.00000000000000E+00   0.00000000000000E+00   0.00000000000000E+00
      4.43489799871814E-18   0.00000000000000E+00   0.00000000000000E+00   0.00000000000000E+00   0.00000000000000E+00
     -2.82003183142137E-18  -4.20570950550325E-34  -2.82003183142137E-18  -1.80686168240520E-17   2.30946666666667E-04
      2.30946663000771E-04   0.00000000000000E+00   0.00000000000000E+00   2.23700748690218E-11   1.24975361833270E-34
      2.23700748690218E-11   5.83325853203565E-18
      6.07416000000000E-03
      0.00000000000000E+00   4.81728637927029E-12   0.00000000000000E+00   0.00000000000000E+00  -2.93535288759239E-11
      3.09896019475524E-34  -2.93535288759239E-11   7.80040833231133E-18   0.00000000000000E+00   0.00000000000000E+00
      0.00000000000000E+00   0.00000000000000E+00   0.00000000000000E+00   0.00000000000000E+00   0.00000000000000E+00
      4.43398108465449E-18   0.00000000000000E+00   0.00000000000000E+00   0.00000000000000E+00   0.00000000000000E+00
     -8.47730667193318E-18  -4.13558077492913E-34  -8.47730667193318E-18  -1.80686139796336E-17   3.03708000000000E-04
      3.03707995189683E-04   0.00000000000000E+00   0.00000000000000E+00   2.93535373532306E-11   1.03662058017390E-34
      2.93535373532306E-11   5.83422456266779E-18
      7.67490933333333E-03
      0.00000000000000E+00   6.07198870952793E-12   0.00000000000000E+00   0.00000000000000E+00  -3.69988601276469E-11
      2.29812573922105E-34  -3.69988601276469E-11   7.80035117558271E-18   0.00000000000000E+00   0.00000000000000E+00
      0.00000000000000E+00   0.00000000000000E+00   0.00000000000000E+00   0.00000000000000E+00   0.00000000000000E+00
      4.43297249477945E-18   0.00000000000000E+00   0.00000000000000E+00   0.00000000000000E+00   0.00000000000000E+00
      1.05454885419068E-17  -3.80419392492958E-34   1.05454885419068E-17  -1.80686108888456E-17   3.83745466666667E-04
      3.83745460603467E-04   0.00000000000000E+00   0.00000000000000E+00   3.69988495821583E-11   1.50606818570853E-34
      3.69988495821583E-11   5.83528721848342E-18
      9.43573360000000E-03
      0.00000000000000E+00   7.44486024816254E-12   0.00000000000000E+00   0.00000000000000E+00  -4.53642067643480E-11
      2.36042114692787E-34  -4.53642067643480E-11   7.80028830361311E-18   0.00000000000000E+00   0.00000000000000E+00
      0.00000000000000E+00   0.00000000000000E+00   0.00000000000000E+00   0.00000000000000E+00   0.00000000000000E+00
      4.43186306476058E-18   0.00000000000000E+00   0.00000000000000E+00   0.00000000000000E+00   0.00000000000000E+00
     -1.09523637957981E-18  -3.85219339109513E-34  -1.09523637957981E-18  -1.80686075349938E-17   4.71786680000000E-04
      4.71786672565923E-04   0.00000000000000E+00   0.00000000000000E+00   4.53642078595844E-11   1.49177224416726E-34
      4.53642078595844E-11   5.83645616662018E-18
      1.13726402933333E-02
      0.00000000000000E+00   8.94615558647517E-12   0.00000000000000E+00   0.00000000000000E+00  -5.45119822483078E-11
      3.06744035792129E-34  -5.45119822483078E-11   7.80021914496878E-18   0.00000000000000E+00   0.00000000000000E+00
      0.00000000000000E+00   0.00000000000000E+00   0.00000000000000E+00   0.00000000000000E+00   0.00000000000000E+00
      4.43064271450594E-18   0.00000000000000E+00   0.00000000000000E+00   0.00000000000000E+00   0.00000000000000E+00
      4.00585202012839E-18  -4.37647164390266E-34   4.00585202012839E-18  -1.80686039013661E-17   5.68632014666667E-04
      5.68632005733484E-04   0.00000000000000E+00   0.00000000000000E+00   5.45119782424559E-11   1.30903128598137E-34
      5.45119782424559E-11   5.83774204189133E-18
      1.35032376560000E-02
      0.00000000000000E+00   1.05867878172543E-11   0.00000000000000E+00   0.00000000000000E+00  -6.45087686979202E-11
      2.25657661282514E-34  -6.45087686979202E-11   7.80014307109142E-18   0.00000000000000E+00   0.00000000000000E+00
      0.00000000000000E+00   0.00000000000000E+00   0.00000000000000E+00   0.00000000000000E+00   0.00000000000000E+00
      4.42930035672689E-18   0.00000000000000E+00   0.00000000000000E+00   0.00000000000000E+00   0.00000000000000E+00
     -7.14398034717648E-18  -3.89379769092707E-34  -7.14398034717648E-18  -1.80685999715708E-17   6.75161882800000E-04
      6.75161872228566E-04   0.00000000000000E+00   0.00000000000000E+00   6.45087758419005E-11   1.63722107810192E-34
      6.45087758419005E-11   5.83915654375256E-18
      1.58468947549333E-02
      0.00000000000000E+00   1.23784224860437E-11   0.00000000000000E+00   0.00000000000000E+00  -7.54254926854754E-11
      2.53639442137519E-34  -7.54254926854754E-11   7.80005939058949E-18   0.00000000000000E+00   0.00000000000000E+00
      0.00000000000000E+00   0.00000000000000E+00   0.00000000000000E+00   0.00000000000000E+00   0.00000000000000E+00
      4.42782379638506E-18   0.00000000000000E+00   0.00000000000000E+00   0.00000000000000E+00   0.00000000000000E+00
      3.47745354582036E-18  -4.04781939741744E-34   3.47745354582036E-18  -1.80685957299808E-17   7.92344737746667E-04
      7.92344725386229E-04   0.00000000000000E+00   0.00000000000000E+00   7.54254892080218E-11   1.51142497604226E-34
      7.54254892080218E-11   5.84071254300627E-18
      1.84249175637600E-02
      0.00000000000000E+00   1.43333676302414E-11   0.00000000000000E+00   0.00000000000000E+00  -8.73372390548388E-11
      1.97213541174751E-34  -8.73372390548388E-11   7.79996734295954E-18   0.00000000000000E+00   0.00000000000000E+00
      0.00000000000000E+00   0.00000000000000E+00   0.00000000000000E+00   0.00000000000000E+00   0.00000000000000E+00
      4.42619962011809E-18   0.00000000000000E+00   0.00000000000000E+00   0.00000000000000E+00   0.00000000000000E+00
      6.72442429369944E-18  -3.20019281742370E-34   6.72442429369944E-18  -1.80685911623034E-17   9.21245878188001E-04
      9.21245863875480E-04   0.00000000000000E+00   0.00000000000000E+00   8.73372323304144E-11   1.22805740567619E-34
      8.73372323304144E-11   5.84242419922580E-18
      2.12607426534693E-02
      0.00000000000000E+00   1.64646298128157E-11   0.00000000000000E+00   0.00000000000000E+00  -1.00323201922798E-10
      2.53674932869941E-34  -1.00323201922798E-10   7.79986609168071E-18   0.00000000000000E+00   0.00000000000000E+00
      0.00000000000000E+00   0.00000000000000E+00   0.00000000000000E+00   0.00000000000000E+00   0.00000000000000E+00
      4.42441307464857E-18   0.00000000000000E+00   0.00000000000000E+00   0.00000000000000E+00   0.00000000000000E+00
     -2.99790022844586E-18  -3.81798205069535E-34  -2.99790022844586E-18  -1.80685862563106E-17   1.06303713267347E-03
      1.06303711623281E-03   0.00000000000000E+00   0.00000000000000E+00   1.00323204920698E-10   1.28123272199594E-34
      1.00323204920698E-10   5.84430708998131E-18
      2.43801502521496E-02
      0.00000000000000E+00   1.87858551394461E-11   0.00000000000000E+00   0.00000000000000E+00  -1.14466429850168E-10
      2.79950051028692E-34  -1.14466429850168E-10   7.79975471661946E-18   0.00000000000000E+00   0.00000000000000E+00
      0.00000000000000E+00   0.00000000000000E+00   0.00000000000000E+00   0.00000000000000E+00   0.00000000000000E+00
      4.42244793308372E-18   0.00000000000000E+00   0.00000000000000E+00   0.00000000000000E+00   0.00000000000000E+00
     -3.33127099384051E-18  -4.34234537890934E-34  -3.33127099384051E-18  -1.80685810027628E-17   1.21900751260748E-03
      1.21900749384901E-03   0.00000000000000E+00   0.00000000000000E+00   1.14466433181439E-10   1.54284486862242E-34
      1.14466433181439E-10   5.84637835305964E-18
      2.78114986106979E-02
      0.00000000000000E+00   2.13112327794189E-11   0.00000000000000E+00   0.00000000000000E+00  -1.29853378610994E-10
      2.13152137240674E-34  -1.29853378610994E-10   7.79963220567667E-18   0.00000000000000E+00   0.00000000000000E+00
      0.00000000000000E+00   0.00000000000000E+00   0.00000000000000E+00   0.00000000000000E+00   0.00000000000000E+00
      4.42028634789845E-18   0.00000000000000E+00   0.00000000000000E+00   0.00000000000000E+00   0.00000000000000E+00
     -1.57278075593565E-18  -3.89664461478535E-34  -1.57278075593565E-18  -1.80685753965654E-17   1.39057493053490E-03
      1.39057490925477E-03   0.00000000000000E+00   0.00000000000000E+00   1.29853380183775E-10   1.76512324237861E-34
      1.29853380183775E-10   5.84865684299027E-18
      3.15859818051010E-02
      0.00000000000000E+00   2.40554250288090E-11   0.00000000000000E+00   0.00000000000000E+00  -1.46573369673961E-10
      2.34976580198633E-34  -1.46573369673961E-10   7.79949744560048E-18   0.00000000000000E+00   0.00000000000000E+00
      0.00000000000000E+00   0.00000000000000E+00   0.00000000000000E+00   0.00000000000000E+00   0.00000000000000E+00
      4.41790868929162E-18   0.00000000000000E+00   0.00000000000000E+00   0.00000000000000E+00   0.00000000000000E+00
     -8.57321911158705E-19  -3.60955586045697E-34  -8.57321911158705E-19  -1.80685694382204E-17   1.57929909025505E-03
      1.57929906623479E-03   0.00000000000000E+00   0.00000000000000E+00   1.46573370531283E-10   1.25979005847064E-34
      1.46573370531283E-10   5.85116330332825E-18
      3.57379133189445E-02
      0.00000000000000E+00   2.70334729379054E-11   0.00000000000000E+00   0.00000000000000E+00  -1.64717807157912E-10
      2.19692985556199E-34  -1.64717807157912E-10   7.79934921188263E-18   0.00000000000000E+00   0.00000000000000E+00
      0.00000000000000E+00   0.00000000000000E+00   0.00000000000000E+00   0.00000000000000E+00   0.00000000000000E+00
      4.41529336745758E-18   0.00000000000000E+00   0.00000000000000E+00   0.00000000000000E+00   0.00000000000000E+00
     -4.33245316304755E-18  -3.80265796645208E-34  -4.33245316304755E-18  -1.80685631356272E-17   1.78689566594722E-03
      1.78689563895335E-03   0.00000000000000E+00   0.00000000000000E+00   1.64717811490365E-10   1.60572811089009E-34
      1.64717811490365E-10   5.85392055628707E-18
      4.03050379841723E-02
      0.00000000000000E+00   3.02605405783885E-11   0.00000000000000E+00   0.00000000000000E+00  -1.84379161950204E-10
      2.66196081897699E-34  -1.84379161950204E-10   7.79918615764669E-18   0.00000000000000E+00   0.00000000000000E+00
      0.00000000000000E+00   0.00000000000000E+00   0.00000000000000E+00   0.00000000000000E+00   0.00000000000000E+00
      4.41241663718460E-18   0.00000000000000E+00   0.00000000000000E+00   0.00000000000000E+00   0.00000000000000E+00
     -4.94402024173167E-18  -4.25736408979402E-34  -4.94402024173167E-18  -1.80685565063134E-17   2.01525189920861E-03
      2.01525186899247E-03   0.00000000000000E+00   0.00000000000000E+00   1.84379166894225E-10   1.59540327081703E-34
      1.84379166894225E-10   5.85695371148211E-18
      4.53288751159228E-02
      0.00000000000000E+00   3.37517835958160E-11   0.00000000000000E+00   0.00000000000000E+00  -2.05649607498919E-10
      2.74894184190826E-34  -2.05649607498919E-10   7.79900680142761E-18   0.00000000000000E+00   0.00000000000000E+00
      0.00000000000000E+00   0.00000000000000E+00   0.00000000000000E+00   0.00000000000000E+00   0.00000000000000E+00
      4.40925238302972E-18   0.00000000000000E+00   0.00000000000000E+00   0.00000000000000E+00   0.00000000000000E+00
     -5.92320642366727E-18  -3.88535979559048E-34  -5.92320642366727E-18  -1.80685495801822E-17   2.26644375579614E-03
      2.26644372209398E-03   0.00000000000000E+00   0.00000000000000E+00   2.05649613422126E-10   1.13641795368222E-34
      2.05649613422126E-10   5.86029039572493E-18
      5.08550959608485E-02
      0.00000000000000E+00   3.75220408135328E-11   0.00000000000000E+00   0.00000000000000E+00  -2.28619433959959E-10
      2.88124187437725E-34  -2.28619433959959E-10   7.79880951373285E-18   0.00000000000000E+00   0.00000000000000E+00
      0.00000000000000E+00   0.00000000000000E+00   0.00000000000000E+00   0.00000000000000E+00   0.00000000000000E+00
      4.40577188314942E-18   0.00000000000000E+00   0.00000000000000E+00   0.00000000000000E+00   0.00000000000000E+00
     -7.25741833082102E-18  -3.93354199597338E-34  -7.25741833082102E-18  -1.80685424028877E-17   2.54275479804242E-03
      2.54275476057567E-03   0.00000000000000E+00   0.00000000000000E+00   2.28619441217377E-10   1.05230012159614E-34
      2.28619441217377E-10   5.86396100600537E-18
      5.69339388902666E-02
      0.00000000000000E+00   4.15855060351926E-11   0.00000000000000E+00   0.00000000000000E+00  -2.53374913340499E-10
      2.17225778143711E-34  -2.53374913340499E-10   7.79859250226271E-18   0.00000000000000E+00   0.00000000000000E+00
      0.00000000000000E+00   0.00000000000000E+00   0.00000000000000E+00   0.00000000000000E+00   0.00000000000000E+00
      4.40194354967925E-18   0.00000000000000E+00   0.00000000000000E+00   0.00000000000000E+00   0.00000000000000E+00
     -9.06206496598217E-18  -3.29704729966164E-34  -9.06206496598217E-18  -1.80685350399669E-17   2.84669694451333E-03
      2.84669690298925E-03   0.00000000000000E+00   0.00000000000000E+00   2.53374922402563E-10   1.12478951822453E-34
      2.53374922402563E-10   5.86799898802490E-18
      6.36206661126266E-02
      0.00000000000000E+00   4.59553037894811E-11   0.00000000000000E+00   0.00000000000000E+00  -2.79995907521722E-10
      2.03381416606952E-34  -2.79995907521722E-10   7.79835379565771E-18   0.00000000000000E+00   0.00000000000000E+00
      0.00000000000000E+00   0.00000000000000E+00   0.00000000000000E+00   0.00000000000000E+00   0.00000000000000E+00
      4.39773264334534E-18   0.00000000000000E+00   0.00000000000000E+00   0.00000000000000E+00   0.00000000000000E+00
     -2.83769157334637E-18  -3.28370695117718E-34  -2.83769157334637E-18  -1.80685275818835E-17   3.18103330563133E-03
      3.18103325974407E-03   0.00000000000000E+00   0.00000000000000E+00   2.79995910359414E-10   1.24989278510766E-34
      2.79995910359414E-10   5.87244114288045E-18
      7.09760660572226E-02
      0.00000000000000E+00   5.06430326342668E-11   0.00000000000000E+00   0.00000000000000E+00  -3.08552874659003E-10
      2.20379300859423E-34  -3.08552874659003E-10   7.79809122562558E-18   0.00000000000000E+00   0.00000000000000E+00
      0.00000000000000E+00   0.00000000000000E+00   0.00000000000000E+00   0.00000000000000E+00   0.00000000000000E+00
      4.39310095976595E-18   0.00000000000000E+00   0.00000000000000E+00   0.00000000000000E+00   0.00000000000000E+00
      6.43953536542896E-18  -3.50212745202340E-34   6.43953536542896E-18  -1.80685201501636E-17   3.54880330286113E-03
      3.54880325229329E-03   0.00000000000000E+00   0.00000000000000E+00   3.08552868219468E-10   1.29833444342916E-34
      3.08552868219468E-10   5.87732796477204E-18
      7.90670059962782E-02
      0.00000000000000E+00   5.56581808049931E-11   0.00000000000000E+00   0.00000000000000E+00  -3.39103376795862E-10
      2.74953549518450E-34  -3.39103376795862E-10   7.79780240728704E-18   0.00000000000000E+00   0.00000000000000E+00
      0.00000000000000E+00   0.00000000000000E+00   0.00000000000000E+00   0.00000000000000E+00   0.00000000000000E+00
      4.38800648465028E-18   0.00000000000000E+00   0.00000000000000E+00   0.00000000000000E+00   0.00000000000000E+00
      8.29006345083950E-18  -4.06061787549090E-34   8.29006345083950E-18  -1.80685129048388E-17   3.95335029981391E-03
      3.95335024423860E-03   0.00000000000000E+00   0.00000000000000E+00   3.39103368505798E-10   1.31108238030640E-34
      3.39103368505798E-10   5.88270401290148E-18
      8.79670399292394E-02
      0.00000000000000E+00   6.10074774032318E-11   0.00000000000000E+00   0.00000000000000E+00  -3.71688120887335E-10
      2.10442329293939E-34  -3.71688120887335E-10   7.79748471756342E-18   0.00000000000000E+00   0.00000000000000E+00
      0.00000000000000E+00   0.00000000000000E+00   0.00000000000000E+00   0.00000000000000E+00   0.00000000000000E+00
      4.38240301483736E-18   0.00000000000000E+00   0.00000000000000E+00   0.00000000000000E+00   0.00000000000000E+00
     -2.67292067382885E-18  -3.53402127614444E-34  -2.67292067382885E-18  -1.80685060534645E-17   4.39835199646197E-03
      4.39835193554562E-03   0.00000000000000E+00   0.00000000000000E+00   3.71688123560255E-10   1.42959798320505E-34
      3.71688123560255E-10   5.88861832106373E-18
      9.77570772554967E-02
      0.00000000000000E+00   6.66940603170689E-11   0.00000000000000E+00   0.00000000000000E+00  -4.06326336873717E-10
      1.79378953366537E-34  -4.06326336873717E-10   7.79713527141068E-18   0.00000000000000E+00   0.00000000000000E+00
      0.00000000000000E+00   0.00000000000000E+00   0.00000000000000E+00   0.00000000000000E+00   0.00000000000000E+00
      4.37623974180973E-18   0.00000000000000E+00   0.00000000000000E+00   0.00000000000000E+00   0.00000000000000E+00
     -4.99084713822215E-17  -2.88394604213657E-34  -4.99084713822215E-17  -1.80684998620081E-17   4.88785386277484E-03
      4.88785379618063E-03   0.00000000000000E+00   0.00000000000000E+00   4.06326386782188E-10   1.09015650847120E-34
      4.06326386782188E-10   5.89512484878772E-18
      1.07757077255497E-01
      0.00000000000000E+00   7.22947313266772E-11   0.00000000000000E+00   0.00000000000000E+00  -4.40439497790602E-10
      2.65565377535910E-34  -4.40439497790602E-10   7.79677834428897E-18   0.00000000000000E+00   0.00000000000000E+00
      0.00000000000000E+00   0.00000000000000E+00   0.00000000000000E+00   0.00000000000000E+00   0.00000000000000E+00
      4.36994487108990E-18   0.00000000000000E+00   0.00000000000000E+00   0.00000000000000E+00   0.00000000000000E+00
     -4.78854507840167E-17  -3.59381679723403E-34  -4.78854507840167E-17  -1.80684949829419E-17   5.38785386277483E-03
      5.38785379058870E-03   0.00000000000000E+00   0.00000000000000E+00   4.40439545676053E-10   9.38163021874936E-35
      4.40439545676053E-10   5.90177176756296E-18
      1.17757077255497E-01
      0.00000000000000E+00   7.76913347054760E-11   0.00000000000000E+00   0.00000000000000E+00  -4.73308258098990E-10
      2.59197337978314E-34  -4.73308258098990E-10   7.79642143063843E-18   0.00000000000000E+00   0.00000000000000E+00
      0.00000000000000E+00   0.00000000000000E+00   0.00000000000000E+00   0.00000000000000E+00   0.00000000000000E+00
      4.36365058495559E-18   0.00000000000000E+00   0.00000000000000E+00   0.00000000000000E+00   0.00000000000000E+00
      1.38748902734813E-17  -3.85555636282057E-34   1.38748902734813E-17  -1.80684915544246E-17   5.88785386277483E-03
      5.88785378520060E-03   0.00000000000000E+00   0.00000000000000E+00   4.73308244224100E-10   1.26358298303742E-34
      4.73308244224100E-10   5.90841953883062E-18
      1.27757077255497E-01
      0.00000000000000E+00   8.28899073490591E-11   0.00000000000000E+00   0.00000000000000E+00  -5.04969468520006E-10
      2.46009804752127E-34  -5.04969468520006E-10   7.79606453033611E-18   0.00000000000000E+00   0.00000000000000E+00
      0.00000000000000E+00   0.00000000000000E+00   0.00000000000000E+00   0.00000000000000E+00   0.00000000000000E+00
      4.35735687845596E-18   0.00000000000000E+00   0.00000000000000E+00   0.00000000000000E+00   0.00000000000000E+00
     -5.02309632258558E-17  -3.78760200229482E-34  -5.02309632258558E-17  -1.80684895664862E-17   6.38785386277483E-03
      6.38785378001027E-03   0.00000000000000E+00   0.00000000000000E+00   5.04969518750970E-10   1.32750395477356E-34
      5.04969518750970E-10   5.91506815769404E-18
      1.37757077255497E-01
      0.00000000000000E+00   8.78964507633050E-11   0.00000000000000E+00   0.00000000000000E+00  -5.35460005753425E-10
      2.97667221541871E-34  -5.35460005753425E-10   7.79570764325873E-18   0.00000000000000E+00   0.00000000000000E+00
      0.00000000000000E+00   0.00000000000000E+00   0.00000000000000E+00   0.00000000000000E+00   0.00000000000000E+00
      4.35106374667809E-18   0.00000000000000E+00   0.00000000000000E+00   0.00000000000000E+00   0.00000000000000E+00
     -4.91057072246992E-17  -3.85291575799090E-34  -4.91057072246992E-17  -1.80684890092239E-17   6.88785386277483E-03
      6.88785377501170E-03   0.00000000000000E+00   0.00000000000000E+00   5.35460054859133E-10   8.76243542572198E-35
      5.35460054859133E-10   5.92171761928704E-18
      1.47757077255497E-01
      0.00000000000000E+00   9.27168965172740E-11   0.00000000000000E+00   0.00000000000000E+00  -5.64816007595043E-10
      2.54975069666649E-34  -5.64816007595043E-10   7.79535076928321E-18   0.00000000000000E+00   0.00000000000000E+00
      0.00000000000000E+00   0.00000000000000E+00   0.00000000000000E+00   0.00000000000000E+00   0.00000000000000E+00
      4.34477118475500E-18   0.00000000000000E+00   0.00000000000000E+00   0.00000000000000E+00   0.00000000000000E+00
     -4.51817232342028E-17  -3.69623648884686E-34  -4.51817232342028E-17  -1.80684898728149E-17   7.38785386277483E-03
      7.38785377019898E-03   0.00000000000000E+00   0.00000000000000E+00   5.64816052776766E-10   1.14648579218038E-34
      5.64816052776766E-10   5.92836791877667E-18
      1.57757077255497E-01
      0.00000000000000E+00   9.73570691682683E-11   0.00000000000000E+00   0.00000000000000E+00  -5.93073090669733E-10
      2.20616485628624E-34  -5.93073090669733E-10   7.79499390828667E-18   0.00000000000000E+00   0.00000000000000E+00
      0.00000000000000E+00   0.00000000000000E+00   0.00000000000000E+00   0.00000000000000E+00   0.00000000000000E+00
      4.33847918786473E-18   0.00000000000000E+00   0.00000000000000E+00   0.00000000000000E+00   0.00000000000000E+00
     -5.33630605721229E-17  -3.34146578334971E-34  -5.33630605721229E-17  -1.80684921475140E-17   7.88785386277484E-03
      7.88785376556631E-03   0.00000000000000E+00   0.00000000000000E+00   5.93073144032794E-10   1.13530092706346E-34
      5.93073144032794E-10   5.93501905136256E-18
      1.67757077255497E-01
      0.00000000000000E+00   1.01822684997914E-10   0.00000000000000E+00   0.00000000000000E+00  -6.20266246458994E-10
      2.42280712236737E-34  -6.20266246458994E-10   7.79463706014644E-18   0.00000000000000E+00   0.00000000000000E+00
      0.00000000000000E+00   0.00000000000000E+00   0.00000000000000E+00   0.00000000000000E+00   0.00000000000000E+00
      4.33218775122788E-18   0.00000000000000E+00   0.00000000000000E+00   0.00000000000000E+00   0.00000000000000E+00
     -5.71239313201830E-17  -3.53794882389699E-34  -5.71239313201830E-17  -1.80684958236493E-17   8.38785386277484E-03
      8.38785376110792E-03   0.00000000000000E+00   0.00000000000000E+00   6.20266303582925E-10   1.11514170152962E-34
      6.20266303582925E-10   5.94167101227499E-18
      1.77757077255497E-01
      0.00000000000000E+00   1.06119355803915E-10   0.00000000000000E+00   0.00000000000000E+00  -6.46429800499437E-10
      2.19593698281220E-34  -6.46429800499437E-10   7.79428022474016E-18   0.00000000000000E+00   0.00000000000000E+00
      0.00000000000000E+00   0.00000000000000E+00   0.00000000000000E+00   0.00000000000000E+00   0.00000000000000E+00
      4.32589687010029E-18   0.00000000000000E+00   0.00000000000000E+00   0.00000000000000E+00   0.00000000000000E+00
     -5.85168472818128E-17  -3.30004793670614E-34  -5.85168472818128E-17  -1.80685008916131E-17   8.88785386277484E-03
      8.88785375681827E-03   0.00000000000000E+00   0.00000000000000E+00   6.46429859016284E-10   1.10411095389394E-34
      6.46429859016284E-10   5.94832379677259E-18
      1.87757077255497E-01
      0.00000000000000E+00   1.10252586793525E-10   0.00000000000000E+00   0.00000000000000E+00  -6.71597336555956E-10
      2.71688766278106E-34  -6.71597336555956E-10   7.79392340194579E-18   0.00000000000000E+00   0.00000000000000E+00
      0.00000000000000E+00   0.00000000000000E+00   0.00000000000000E+00   0.00000000000000E+00   0.00000000000000E+00
      4.31960653978281E-18   0.00000000000000E+00   0.00000000000000E+00   0.00000000000000E+00   0.00000000000000E+00
     -6.60811142937918E-17  -3.91445190064119E-34  -6.60811142937918E-17  -1.80685073418757E-17   9.38785386277484E-03
      9.38785375269180E-03   0.00000000000000E+00   0.00000000000000E+00   6.71597402637071E-10   1.19756423786013E-34
      6.71597402637071E-10   5.95497740014710E-18
      1.97757077255497E-01
      0.00000000000000E+00   1.14227755518238E-10   0.00000000000000E+00   0.00000000000000E+00  -6.95801697647287E-10