DF-ISE text

Info {
  version   = 1.0
  type      = xyplot
  datasets  = [
    "time"
    "source OuterVoltage" "source InnerVoltage" "source QuasiFermiPotential" "source DisplacementCurrent" "source eCurrent"
    "source hCurrent" "source TotalCurrent" "source Charge" "gate OuterVoltage" "gate InnerVoltage"
    "gate QuasiFermiPotential" "gate DisplacementCurrent" "gate eCurrent" "gate hCurrent" "gate TotalCurrent"
    "gate Charge" "substrate OuterVoltage" "substrate InnerVoltage" "substrate QuasiFermiPotential" "substrate DisplacementCurrent"
    "substrate eCurrent" "substrate hCurrent" "substrate TotalCurrent" "substrate Charge" "drain OuterVoltage"
    "drain InnerVoltage" "drain QuasiFermiPotential" "drain DisplacementCurrent" "drain eCurrent" "drain hCurrent"
    "drain TotalCurrent" "drain Charge" ]
  functions = [
    Time
    OuterVoltage InnerVoltage QuasiFermiPotential DisplacementCurrent eCurrent
    hCurrent TotalCurrent Charge OuterVoltage InnerVoltage
    QuasiFermiPotential DisplacementCurrent eCurrent hCurrent TotalCurrent
    Charge OuterVoltage InnerVoltage QuasiFermiPotential DisplacementCurrent
    eCurrent hCurrent TotalCurrent Charge OuterVoltage
    InnerVoltage QuasiFermiPotential DisplacementCurrent eCurrent hCurrent
    TotalCurrent Charge ]
}

Data {
      0.00000000000000E+00
      0.00000000000000E+00   0.00000000000000E+00   0.00000000000000E+00   0.00000000000000E+00  -5.86198850404073E-21
     -2.65088340594207E-34  -5.86198850404100E-21   5.42350640925988E-18   0.00000000000000E+00   0.00000000000000E+00
      0.00000000000000E+00   0.00000000000000E+00   0.00000000000000E+00   0.00000000000000E+00   0.00000000000000E+00
      3.63814160333971E-18   0.00000000000000E+00   0.00000000000000E+00   0.00000000000000E+00   0.00000000000000E+00
      6.95920450511220E-21   5.46955048108663E-34   6.95920450511274E-21  -1.33327691982377E-17   0.00000000000000E+00
      0.00000000000000E+00   0.00000000000000E+00   0.00000000000000E+00  -1.09721600107146E-21  -2.81866707514456E-34
     -1.09721600107175E-21   4.27112118563808E-18
      0.00000000000000E+00
      0.00000000000000E+00   0.00000000000000E+00   0.00000000000000E+00   0.00000000000000E+00  -1.70458102741308E-18
     -2.62556463507534E-34  -1.70458102741308E-18   5.41909053134022E-18   0.00000000000000E+00   0.00000000000000E+00
      0.00000000000000E+00   0.00000000000000E+00   0.00000000000000E+00   0.00000000000000E+00   0.00000000000000E+00
      3.62909896432156E-18   0.00000000000000E+00   0.00000000000000E+00   0.00000000000000E+00   0.00000000000000E+00
      1.91199857248193E-18   5.52231580735295E-34   1.91199857248193E-18  -1.33156799176478E-17   0.00000000000000E+00
      0.00000000000000E+00   0.00000000000000E+00   0.00000000000000E+00  -2.07417545068855E-19  -2.89675117227761E-34
     -2.07417545068855E-19   4.26749042198600E-18
      1.00000000000000E-03
      0.00000000000000E+00   7.18668982847465E-13   0.00000000000000E+00   0.00000000000000E+00  -3.17192730979870E-12
     -2.40026856085217E-34  -3.17192730979870E-12   5.41906726805795E-18   0.00000000000000E+00   0.00000000000000E+00
      0.00000000000000E+00   0.00000000000000E+00   0.00000000000000E+00   0.00000000000000E+00   0.00000000000000E+00
      3.62863321772656E-18   0.00000000000000E+00   0.00000000000000E+00   0.00000000000000E+00   0.00000000000000E+00
     -5.12617749580787E-19   5.11323300224349E-34  -5.12617749580787E-19  -1.33156819793770E-17   5.00000000000000E-05
      4.99999992804611E-05   0.00000000000000E+00   0.00000000000000E+00   3.17192782241645E-12  -2.71296444139133E-34
      3.17192782241645E-12   4.26798149359243E-18
      2.09333333333333E-03
      0.00000000000000E+00   1.50209006211670E-12   0.00000000000000E+00   0.00000000000000E+00  -6.62961991778468E-12
     -2.50064133343427E-34  -6.62961991778468E-12   5.41904183364139E-18   0.00000000000000E+00   0.00000000000000E+00
      0.00000000000000E+00   0.00000000000000E+00   0.00000000000000E+00   0.00000000000000E+00   0.00000000000000E+00
      3.62812400676382E-18   0.00000000000000E+00   0.00000000000000E+00   0.00000000000000E+00   0.00000000000000E+00
     -3.06498894650091E-19   5.36405836762750E-34  -3.06498894650091E-19  -1.33156842470988E-17   1.04666666666667E-04
      1.04666665162766E-04   0.00000000000000E+00   0.00000000000000E+00   6.62962022428357E-12  -2.86341703419323E-34
      6.62962022428357E-12   4.26851840669359E-18
      3.29600000000000E-03
      0.00000000000000E+00   2.36093538871248E-12   0.00000000000000E+00   0.00000000000000E+00  -1.04202403241109E-11
     -2.57488404568271E-34  -1.04202403241109E-11   5.41901385591051E-18   0.00000000000000E+00   0.00000000000000E+00
      0.00000000000000E+00   0.00000000000000E+00   0.00000000000000E+00   0.00000000000000E+00   0.00000000000000E+00
      3.62756388111024E-18   0.00000000000000E+00   0.00000000000000E+00   0.00000000000000E+00   0.00000000000000E+00
     -3.63487571921841E-20   5.38689943886229E-34  -3.63487571921835E-20  -1.33156867579452E-17   1.64800000000000E-04
      1.64799997636208E-04   0.00000000000000E+00   0.00000000000000E+00   1.04202403604596E-11  -2.81201539317958E-34
      1.04202403604596E-11   4.26910902092448E-18
      4.61893333333333E-03
      0.00000000000000E+00   3.30208812895719E-12   0.00000000000000E+00   0.00000000000000E+00  -1.45740858876263E-11
     -2.40174926683703E-34  -1.45740858876263E-11   5.41898308056073E-18   0.00000000000000E+00   0.00000000000000E+00
      0.00000000000000E+00   0.00000000000000E+00   0.00000000000000E+00   0.00000000000000E+00   0.00000000000000E+00
      3.62694775063393E-18   0.00000000000000E+00   0.00000000000000E+00   0.00000000000000E+00   0.00000000000000E+00
     -3.61011325389992E-19   5.12318428318451E-34  -3.61011325389991E-19  -1.33156895396463E-17   2.30946666666667E-04
      2.30946663360587E-04   0.00000000000000E+00   0.00000000000000E+00   1.45740862486376E-11  -2.72143501634748E-34
      1.45740862486376E-11   4.26975870845162E-18
      6.07416000000000E-03
      0.00000000000000E+00   4.33295294047765E-12   0.00000000000000E+00   0.00000000000000E+00  -1.91239019775331E-11
     -2.46930876955320E-34  -1.91239019775331E-11   5.41894922786269E-18   0.00000000000000E+00   0.00000000000000E+00
      0.00000000000000E+00   0.00000000000000E+00   0.00000000000000E+00   0.00000000000000E+00   0.00000000000000E+00
      3.62627001646798E-18   0.00000000000000E+00   0.00000000000000E+00   0.00000000000000E+00   0.00000000000000E+00
     -6.99233036800213E-19   5.08540761273197E-34  -6.99233036800212E-19  -1.33156926234175E-17   3.03708000000000E-04
      3.03707995661809E-04   0.00000000000000E+00   0.00000000000000E+00   1.91239026767662E-11  -2.61609884317877E-34
      1.91239026767662E-11   4.27047337908686E-18
      7.67490933333333E-03
      0.00000000000000E+00   5.46153588231553E-12   0.00000000000000E+00   0.00000000000000E+00  -2.41049824589655E-11
     -2.68939409994352E-34  -2.41049824589655E-11   5.41891199012078E-18   0.00000000000000E+00   0.00000000000000E+00
      0.00000000000000E+00   0.00000000000000E+00   0.00000000000000E+00   0.00000000000000E+00   0.00000000000000E+00
      3.62552452019450E-18   0.00000000000000E+00   0.00000000000000E+00   0.00000000000000E+00   0.00000000000000E+00
      3.29826828748254E-19   5.31416452845693E-34   3.29826828748254E-19  -1.33156960444564E-17   3.83745466666667E-04
      3.83745461198540E-04   0.00000000000000E+00   0.00000000000000E+00   2.41049821291387E-11  -2.62477042851341E-34
      2.41049821291387E-11   4.27125953414108E-18
      9.43573360000000E-03
      0.00000000000000E+00   6.69642729133226E-12   0.00000000000000E+00   0.00000000000000E+00  -2.95552608713974E-11
     -2.41219094789122E-34  -2.95552608713974E-11   5.41887102887796E-18   0.00000000000000E+00   0.00000000000000E+00
      0.00000000000000E+00   0.00000000000000E+00   0.00000000000000E+00   0.00000000000000E+00   0.00000000000000E+00
      3.62470448795888E-18   0.00000000000000E+00   0.00000000000000E+00   0.00000000000000E+00   0.00000000000000E+00
      4.94860093903617E-19   5.22745732803421E-34   4.94860093903617E-19  -1.33156998425184E-17   4.71786680000000E-04
      4.71786673295494E-04   0.00000000000000E+00   0.00000000000000E+00   2.95552603765373E-11  -2.81526638014299E-34
      2.95552603765373E-11   4.27212432568155E-18
      1.13726402933333E-02
      0.00000000000000E+00   8.04684640733554E-12   0.00000000000000E+00   0.00000000000000E+00  -3.55153955243186E-11
     -2.66171075919293E-34  -3.55153955243186E-11   5.41882597184142E-18   0.00000000000000E+00   0.00000000000000E+00
      0.00000000000000E+00   0.00000000000000E+00   0.00000000000000E+00   0.00000000000000E+00   0.00000000000000E+00
      3.62380246900971E-18   0.00000000000000E+00   0.00000000000000E+00   0.00000000000000E+00   0.00000000000000E+00
      4.75476799264009E-19   5.35839981992057E-34   4.75476799264010E-19  -1.33157040625886E-17   5.68632014666667E-04
      5.68632006610120E-04   0.00000000000000E+00   0.00000000000000E+00   3.55153950488418E-11  -2.69668906072764E-34
      3.55153950488418E-11   4.27307562173748E-18
      1.35032376560000E-02
      0.00000000000000E+00   9.52263203293664E-12   0.00000000000000E+00   0.00000000000000E+00  -4.20288183530359E-11
     -2.59656031724213E-34  -4.20288183530359E-11   5.41877640950080E-18   0.00000000000000E+00   0.00000000000000E+00
      0.00000000000000E+00   0.00000000000000E+00   0.00000000000000E+00   0.00000000000000E+00   0.00000000000000E+00
      3.62281026810962E-18   0.00000000000000E+00   0.00000000000000E+00   0.00000000000000E+00   0.00000000000000E+00
      1.87006788171092E-19   5.38312562206583E-34   1.87006788171092E-19  -1.33157087556631E-17   6.75161882800000E-04
      6.75161873265898E-04   0.00000000000000E+00   0.00000000000000E+00   4.20288181660291E-11  -2.78656530482370E-34
      4.20288181660291E-11   4.27412207805264E-18
      1.58468947549333E-02
      0.00000000000000E+00   1.11342632894232E-11   0.00000000000000E+00   0.00000000000000E+00  -4.91417521859450E-11
     -2.46439109049576E-34  -4.91417521859450E-11   5.41872189140902E-18   0.00000000000000E+00   0.00000000000000E+00
      0.00000000000000E+00   0.00000000000000E+00   0.00000000000000E+00   0.00000000000000E+00   0.00000000000000E+00
      3.62171887120783E-18   0.00000000000000E+00   0.00000000000000E+00   0.00000000000000E+00   0.00000000000000E+00
     -1.09466769269581E-18   5.07547930346433E-34  -1.09466769269581E-18  -1.33157139796626E-17   7.92344737746667E-04
      7.92344726599010E-04   0.00000000000000E+00   0.00000000000000E+00   4.91417532806127E-11  -2.61108821296857E-34
      4.91417532806127E-11   4.27527321704576E-18
      1.84249175637600E-02
      0.00000000000000E+00   1.28928326341244E-11   0.00000000000000E+00   0.00000000000000E+00  -5.69031854473335E-11
     -2.56051997738268E-34  -5.69031854473335E-11   5.41866192209163E-18   0.00000000000000E+00   0.00000000000000E+00
      0.00000000000000E+00   0.00000000000000E+00   0.00000000000000E+00   0.00000000000000E+00   0.00000000000000E+00
      3.62051836370440E-18   0.00000000000000E+00   0.00000000000000E+00   0.00000000000000E+00   0.00000000000000E+00
     -4.21749814326024E-19   5.39192505709153E-34  -4.21749814326023E-19  -1.33157198005013E-17   9.21245878188001E-04
      9.21245865279666E-04   0.00000000000000E+00   0.00000000000000E+00   5.69031858690832E-11  -2.83140507970884E-34
      5.69031858690832E-11   4.27653951470529E-18
      2.12607426534693E-02
      0.00000000000000E+00   1.48100520871732E-11   0.00000000000000E+00   0.00000000000000E+00  -6.53647733190354E-11
     -2.38526182996672E-34  -6.53647733190354E-11   5.41859595654738E-18   0.00000000000000E+00   0.00000000000000E+00
      0.00000000000000E+00   0.00000000000000E+00   0.00000000000000E+00   0.00000000000000E+00   0.00000000000000E+00
      3.61919784057034E-18   0.00000000000000E+00   0.00000000000000E+00   0.00000000000000E+00   0.00000000000000E+00
     -4.36556837478296E-19   5.09285844759114E-34  -4.36556837478296E-19  -1.33157262933385E-17   1.06303713267347E-03
      1.06303711784562E-03   0.00000000000000E+00   0.00000000000000E+00   6.53647737555922E-11  -2.70759661762442E-34
      6.53647737555922E-11   4.27793249622081E-18
      2.43801502521496E-02
      0.00000000000000E+00   1.68981940772683E-11   0.00000000000000E+00   0.00000000000000E+00  -7.45806829867565E-11
     -2.57795400984475E-34  -7.45806829867565E-11   5.41852339529984E-18   0.00000000000000E+00   0.00000000000000E+00
      0.00000000000000E+00   0.00000000000000E+00   0.00000000000000E+00   0.00000000000000E+00   0.00000000000000E+00
      3.61774530751500E-18   0.00000000000000E+00   0.00000000000000E+00   0.00000000000000E+00   0.00000000000000E+00
     -2.49858886419394E-19   5.27308111604881E-34  -2.49858886419393E-19  -1.33157335440479E-17   1.21900751260748E-03
      1.21900749568901E-03   0.00000000000000E+00   0.00000000000000E+00   7.45806832366154E-11  -2.69512710620406E-34
      7.45806832366154E-11   4.27946484123305E-18
      2.78114986106979E-02
      0.00000000000000E+00   1.91700504488259E-11   0.00000000000000E+00   0.00000000000000E+00  -8.46073325033474E-11
     -2.46763810797061E-34  -8.46073325033474E-11   5.41844357895501E-18   0.00000000000000E+00   0.00000000000000E+00
      0.00000000000000E+00   0.00000000000000E+00   0.00000000000000E+00   0.00000000000000E+00   0.00000000000000E+00
      3.61614757231235E-18   0.00000000000000E+00   0.00000000000000E+00   0.00000000000000E+00   0.00000000000000E+00
      2.49087659442432E-19   5.26742772434190E-34   2.49087659442433E-19  -1.33157416509440E-17   1.39057493053490E-03
      1.39057491134186E-03   0.00000000000000E+00   0.00000000000000E+00   8.46073322542598E-11  -2.79978961637129E-34
      8.46073322542598E-11   4.28115049967660E-18
      3.15859818051010E-02
      0.00000000000000E+00   2.16388359471706E-11   0.00000000000000E+00   0.00000000000000E+00  -9.55030210619939E-11
     -2.36983936610924E-34  -9.55030210619939E-11   5.41835578221564E-18   0.00000000000000E+00   0.00000000000000E+00
      0.00000000000000E+00   0.00000000000000E+00   0.00000000000000E+00   0.00000000000000E+00   0.00000000000000E+00
      3.61439012531020E-18   0.00000000000000E+00   0.00000000000000E+00   0.00000000000000E+00   0.00000000000000E+00
     -3.11145579239520E-20   5.15154177195801E-34  -3.11145579239515E-20  -1.33157507268132E-17   1.57929909025505E-03
      1.57929906859030E-03   0.00000000000000E+00   0.00000000000000E+00   9.55030210931086E-11  -2.78170240584876E-34
      9.55030210931086E-11   4.28300481928744E-18
      3.57379133189445E-02
      0.00000000000000E+00   2.43180745801319E-11   0.00000000000000E+00   0.00000000000000E+00  -1.07327427475673E-10
     -2.54218531436379E-34  -1.07327427475673E-10   5.41825920729788E-18   0.00000000000000E+00   0.00000000000000E+00
      0.00000000000000E+00   0.00000000000000E+00   0.00000000000000E+00   0.00000000000000E+00   0.00000000000000E+00
      3.61245700805040E-18   0.00000000000000E+00   0.00000000000000E+00   0.00000000000000E+00   0.00000000000000E+00
      3.45670130535000E-19   4.95915730871916E-34   3.45670130535001E-19  -1.33157609013064E-17   1.78689566594722E-03
      1.78689564160005E-03   0.00000000000000E+00   0.00000000000000E+00   1.07327427130003E-10  -2.41697199435537E-34
      1.07327427130003E-10   4.28504468595816E-18
      4.03050379841723E-02
      0.00000000000000E+00   2.72214605536967E-11   0.00000000000000E+00   0.00000000000000E+00  -1.20140938281670E-10
     -2.38391789881067E-34  -1.20140938281670E-10   5.41815297669167E-18   0.00000000000000E+00   0.00000000000000E+00
      0.00000000000000E+00   0.00000000000000E+00   0.00000000000000E+00   0.00000000000000E+00   0.00000000000000E+00
      3.61033066882274E-18   0.00000000000000E+00   0.00000000000000E+00   0.00000000000000E+00   0.00000000000000E+00
      4.20006330147936E-19   4.99166781677693E-34   4.20006330147936E-19  -1.33157723237591E-17   2.01525189920861E-03
      2.01525187195463E-03   0.00000000000000E+00   0.00000000000000E+00   1.20140937861664E-10  -2.60774991796626E-34
      1.20140937861664E-10   4.28728867824472E-18
      4.53288751159228E-02
      0.00000000000000E+00   3.03626496754868E-11   0.00000000000000E+00   0.00000000000000E+00  -1.34003794489408E-10
     -2.50481935055420E-34  -1.34003794489408E-10   5.41803612519820E-18   0.00000000000000E+00   0.00000000000000E+00
      0.00000000000000E+00   0.00000000000000E+00   0.00000000000000E+00   0.00000000000000E+00   0.00000000000000E+00
      3.60799180386024E-18   0.00000000000000E+00   0.00000000000000E+00   0.00000000000000E+00   0.00000000000000E+00
     -2.21857654683509E-18   5.06339040422327E-34  -2.21857654683509E-18  -1.33157851665216E-17   2.26644375579614E-03
      2.26644372539727E-03   0.00000000000000E+00   0.00000000000000E+00   1.34003796707985E-10  -2.55857105366907E-34
      1.34003796707985E-10   4.28975723746319E-18
      5.08550959608485E-02
      0.00000000000000E+00   3.37550237756031E-11   0.00000000000000E+00   0.00000000000000E+00  -1.48975015351061E-10
     -2.38577980823025E-34  -1.48975015351061E-10   5.41790759117328E-18   0.00000000000000E+00   0.00000000000000E+00
      0.00000000000000E+00   0.00000000000000E+00   0.00000000000000E+00   0.00000000000000E+00   0.00000000000000E+00
      3.60541918275017E-18   0.00000000000000E+00   0.00000000000000E+00   0.00000000000000E+00   0.00000000000000E+00
      1.57761543823127E-18   5.00514171467895E-34   1.57761543823127E-18  -1.33157996288829E-17   2.54275479804242E-03
      2.54275476424719E-03   0.00000000000000E+00   0.00000000000000E+00   1.48975013773445E-10  -2.61936190644871E-34
      1.48975013773445E-10   4.29247285495944E-18
      5.69339388902666E-02
      0.00000000000000E+00   3.74113881897789E-11   0.00000000000000E+00   0.00000000000000E+00  -1.65111061457834E-10
     -2.59823857002423E-34  -1.65111061457834E-10   5.41776620689767E-18   0.00000000000000E+00   0.00000000000000E+00
      0.00000000000000E+00   0.00000000000000E+00   0.00000000000000E+00   0.00000000000000E+00   0.00000000000000E+00
      3.60258945651803E-18   0.00000000000000E+00   0.00000000000000E+00   0.00000000000000E+00   0.00000000000000E+00
      2.43521395197872E-18   5.03849905360797E-34   2.43521395197872E-18  -1.33158159417259E-17   2.84669694451333E-03
      2.84669690705746E-03   0.00000000000000E+00   0.00000000000000E+00   1.65111059022620E-10  -2.44026048358374E-34
      1.65111059022620E-10   4.29546027831017E-18
      6.36206661126266E-02
      0.00000000000000E+00   4.13436090505028E-11   0.00000000000000E+00   0.00000000000000E+00  -1.82464244111213E-10
     -2.34816965920815E-34  -1.82464244111213E-10   5.41761068798652E-18   0.00000000000000E+00   0.00000000000000E+00
      0.00000000000000E+00   0.00000000000000E+00   0.00000000000000E+00   0.00000000000000E+00   0.00000000000000E+00
      3.59947694664041E-18   0.00000000000000E+00   0.00000000000000E+00   0.00000000000000E+00   0.00000000000000E+00
      3.53824507319484E-18   4.89270945264474E-34   3.53824507319484E-18  -1.33158343729977E-17   3.18103330563133E-03
      3.18103326423865E-03   0.00000000000000E+00   0.00000000000000E+00   1.82464240572968E-10  -2.54453979343660E-34
      1.82464240572968E-10   4.29874673837082E-18
      7.09760660572226E-02
      0.00000000000000E+00   4.55621800081733E-11   0.00000000000000E+00   0.00000000000000E+00  -2.01080785954528E-10
     -2.80110383877950E-34  -2.01080785954528E-10   5.41743962174362E-18   0.00000000000000E+00   0.00000000000000E+00
      0.00000000000000E+00   0.00000000000000E+00   0.00000000000000E+00   0.00000000000000E+00   0.00000000000000E+00
      3.59605341314831E-18   0.00000000000000E+00   0.00000000000000E+00   0.00000000000000E+00   0.00000000000000E+00
      4.99060709327958E-18   5.35505061469542E-34   4.99060709327958E-18  -1.33158552342107E-17   3.54880330286113E-03
      3.54880325724497E-03   0.00000000000000E+00   0.00000000000000E+00   2.01080780963921E-10  -2.55394677591591E-34
      2.01080780963921E-10   4.30236219931875E-18
      7.90670059962782E-02
      0.00000000000000E+00   5.00756898429613E-11   0.00000000000000E+00   0.00000000000000E+00  -2.20998570628337E-10
     -2.39461452875215E-34  -2.20998570628337E-10   5.41725145435427E-18   0.00000000000000E+00   0.00000000000000E+00
      0.00000000000000E+00   0.00000000000000E+00   0.00000000000000E+00   0.00000000000000E+00   0.00000000000000E+00
      3.59228779972352E-18   0.00000000000000E+00   0.00000000000000E+00   0.00000000000000E+00   0.00000000000000E+00
      8.53713853377995E-18   4.72843015032052E-34   8.53713853377995E-18  -1.33158788881072E-17   3.95335029981391E-03
      3.95335024967901E-03   0.00000000000000E+00   0.00000000000000E+00   2.20998562091199E-10  -2.33381562156837E-34
      2.20998562091199E-10   4.30633963402941E-18
      8.79670399292394E-02
      0.00000000000000E+00   5.48902895577758E-11   0.00000000000000E+00   0.00000000000000E+00  -2.42244553138271E-10
     -2.47075111395944E-34  -2.42244553138271E-10   5.41704447680165E-18   0.00000000000000E+00   0.00000000000000E+00
      0.00000000000000E+00   0.00000000000000E+00   0.00000000000000E+00   0.00000000000000E+00   0.00000000000000E+00
      3.58814595352616E-18   0.00000000000000E+00   0.00000000000000E+00   0.00000000000000E+00   0.00000000000000E+00
      1.30157298480212E-17   4.76178576616712E-34   1.30157298480212E-17  -1.33159057577120E-17   4.39835199646197E-03
      4.39835194150693E-03   0.00000000000000E+00   0.00000000000000E+00   2.42244540122542E-10  -2.29103465220767E-34
      2.42244540122542E-10   4.31071532738417E-18
      9.77570772554967E-02
      0.00000000000000E+00   6.00089228542786E-11   0.00000000000000E+00   0.00000000000000E+00  -2.64831772419659E-10
     -2.65007282487200E-34  -2.64831772419659E-10   5.41681680938023E-18   0.00000000000000E+00   0.00000000000000E+00
      0.00000000000000E+00   0.00000000000000E+00   0.00000000000000E+00   0.00000000000000E+00   0.00000000000000E+00
      3.58359031729813E-18   0.00000000000000E+00   0.00000000000000E+00   0.00000000000000E+00   0.00000000000000E+00
      1.92964547242049E-17   4.97092216766082E-34   1.92964547242049E-17  -1.33159363370649E-17   4.88785386277484E-03
      4.88785380269527E-03   0.00000000000000E+00   0.00000000000000E+00   2.64831753123204E-10  -2.32084934278882E-34
      2.64831753123204E-10   4.31552921038646E-18
      1.07757077255497E-01
      0.00000000000000E+00   6.50506302160567E-11   0.00000000000000E+00   0.00000000000000E+00  -2.87078973113430E-10
     -2.62879200230206E-34  -2.87078973113430E-10   5.41658426772281E-18   0.00000000000000E+00   0.00000000000000E+00
      0.00000000000000E+00   0.00000000000000E+00   0.00000000000000E+00   0.00000000000000E+00   0.00000000000000E+00
      3.57893740166756E-18   0.00000000000000E+00   0.00000000000000E+00   0.00000000000000E+00   0.00000000000000E+00
      2.16542699367024E-17   4.84412882629679E-34   2.16542699367024E-17  -1.33159686714307E-17   5.38785386277483E-03
      5.38785379764781E-03   0.00000000000000E+00   0.00000000000000E+00   2.87078951459160E-10  -2.21533682399473E-34
      2.87078951459160E-10   4.32044700204037E-18
      1.17757077255497E-01
      0.00000000000000E+00   6.99090523240428E-11   0.00000000000000E+00   0.00000000000000E+00  -3.08516934218650E-10
     -2.49055255481357E-34  -3.08516934218650E-10   5.41635173451746E-18   0.00000000000000E+00   0.00000000000000E+00
      0.00000000000000E+00   0.00000000000000E+00   0.00000000000000E+00   0.00000000000000E+00   0.00000000000000E+00
      3.57428491031389E-18   0.00000000000000E+00   0.00000000000000E+00   0.00000000000000E+00   0.00000000000000E+00
      1.30444576777701E-17   4.87171875922651E-34   1.30444576777701E-17  -1.33160021093430E-17   5.88785386277483E-03
      5.88785379278388E-03   0.00000000000000E+00   0.00000000000000E+00   3.08516921174192E-10  -2.38116620441295E-34
      3.08516921174192E-10   4.32536546451170E-18
      1.27757077255497E-01
      0.00000000000000E+00   7.45896132067004E-11   0.00000000000000E+00   0.00000000000000E+00  -3.29169643247966E-10
     -2.45811631504942E-34  -3.29169643247966E-10   5.41611920967783E-18   0.00000000000000E+00   0.00000000000000E+00
      0.00000000000000E+00   0.00000000000000E+00   0.00000000000000E+00   0.00000000000000E+00   0.00000000000000E+00
      3.56963283968015E-18   0.00000000000000E+00   0.00000000000000E+00   0.00000000000000E+00   0.00000000000000E+00
      2.12009898725556E-17   4.70114547517512E-34   2.12009898725556E-17  -1.33160366434962E-17   6.38785386277483E-03
      6.38785378809802E-03   0.00000000000000E+00   0.00000000000000E+00   3.29169622046976E-10  -2.24302916012570E-34
      3.29169622046976E-10   4.33028459413823E-18
      1.37757077255497E-01
      0.00000000000000E+00   7.90976907106758E-11   0.00000000000000E+00   0.00000000000000E+00  -3.49060830851230E-10
     -2.50388290773965E-34  -3.49060830851230E-10   5.41588669311765E-18   0.00000000000000E+00   0.00000000000000E+00
      0.00000000000000E+00   0.00000000000000E+00   0.00000000000000E+00   0.00000000000000E+00   0.00000000000000E+00
      3.56498118624847E-18   0.00000000000000E+00   0.00000000000000E+00   0.00000000000000E+00   0.00000000000000E+00
      2.12066500233269E-17   4.66344525701377E-34   2.12066500233269E-17  -1.33160722666479E-17   6.88785386277483E-03
      6.88785378358489E-03   0.00000000000000E+00   0.00000000000000E+00   3.49060809644580E-10  -2.15956234927412E-34
      3.49060809644580E-10   4.33520438728189E-18
      1.47757077255497E-01
      0.00000000000000E+00   8.34385350339978E-11   0.00000000000000E+00   0.00000000000000E+00  -3.68213785641112E-10
     -2.52647287023355E-34  -3.68213785641112E-10   5.41565418475185E-18   0.00000000000000E+00   0.00000000000000E+00
      0.00000000000000E+00   0.00000000000000E+00   0.00000000000000E+00   0.00000000000000E+00   0.00000000000000E+00
      3.56032994659495E-18   0.00000000000000E+00   0.00000000000000E+00   0.00000000000000E+00   0.00000000000000E+00
      4.27862958573841E-18   4.73365929249720E-34   4.27862958573841E-18  -1.33161089716921E-17   7.38785386277483E-03
      7.38785377923920E-03   0.00000000000000E+00   0.00000000000000E+00   3.68213781362482E-10  -2.20718642226365E-34
      3.68213781362482E-10   4.34012484034535E-18
      1.57757077255497E-01
      0.00000000000000E+00   8.76174186872583E-11   0.00000000000000E+00   0.00000000000000E+00  -3.86651744650170E-10
     -2.40641127529324E-34  -3.86651744650170E-10   5.41542168449327E-18   0.00000000000000E+00   0.00000000000000E+00
      0.00000000000000E+00   0.00000000000000E+00   0.00000000000000E+00   0.00000000000000E+00   0.00000000000000E+00
      3.55567911718732E-18   0.00000000000000E+00   0.00000000000000E+00   0.00000000000000E+00   0.00000000000000E+00
      2.00261071809571E-17   4.53346394075495E-34   2.00261071809571E-17  -1.33161467513971E-17   7.88785386277484E-03
      7.88785377505566E-03   0.00000000000000E+00   0.00000000000000E+00   3.86651724624063E-10  -2.12705266546171E-34
      3.86651724624063E-10   4.34504594971658E-18
      1.67757077255497E-01
      0.00000000000000E+00   9.16394616253838E-11   0.00000000000000E+00   0.00000000000000E+00  -4.04397411931611E-10
     -2.63231211304209E-34  -4.04397411931611E-10   5.41518919225580E-18   0.00000000000000E+00   0.00000000000000E+00
      0.00000000000000E+00   0.00000000000000E+00   0.00000000000000E+00   0.00000000000000E+00   0.00000000000000E+00
      3.55102869457545E-18   0.00000000000000E+00   0.00000000000000E+00   0.00000000000000E+00   0.00000000000000E+00
      2.04692925981808E-17   4.64984079648958E-34   2.04692925981808E-17  -1.33161855986514E-17   8.38785386277484E-03
      8.38785377102915E-03   0.00000000000000E+00   0.00000000000000E+00   4.04397391462319E-10  -2.01752868344748E-34
      4.04397391462319E-10   4.34996771182006E-18
      1.77757077255497E-01
      0.00000000000000E+00   9.55097059687782E-11   0.00000000000000E+00   0.00000000000000E+00  -4.21472999509330E-10
     -2.77516665438731E-34  -4.21472999509330E-10   5.41495670795410E-18   0.00000000000000E+00   0.00000000000000E+00
      0.00000000000000E+00   0.00000000000000E+00   0.00000000000000E+00   0.00000000000000E+00   0.00000000000000E+00
      3.54637867536268E-18   0.00000000000000E+00   0.00000000000000E+00   0.00000000000000E+00   0.00000000000000E+00
      4.24492658342528E-18   4.90333201571641E-34   4.24492658342528E-18  -1.33162255064265E-17   8.88785386277484E-03
      8.88785376715463E-03   0.00000000000000E+00   0.00000000000000E+00   4.21472995264403E-10  -2.12816536132910E-34
      4.21472995264403E-10   4.35489012310978E-18
      1.87757077255497E-01
      0.00000000000000E+00   9.92330667081239E-11   0.00000000000000E+00   0.00000000000000E+00  -4.37900283835163E-10
     -2.49465863354530E-34  -4.37900283835163E-10   5.41472423150293E-18   0.00000000000000E+00   0.00000000000000E+00
      0.00000000000000E+00   0.00000000000000E+00   0.00000000000000E+00   0.00000000000000E+00   0.00000000000000E+00
      3.54172905616878E-18   0.00000000000000E+00   0.00000000000000E+00   0.00000000000000E+00   0.00000000000000E+00
      1.89572020256902E-17   4.44659704250831E-34   1.89572020256902E-17  -1.33162664677291E-17   9.38785386277484E-03
      9.38785376342718E-03   0.00000000000000E+00   0.00000000000000E+00   4.37900264877961E-10  -1.95193840896301E-34
      4.37900264877961E-10   4.35981318005735E-18
      1.97757077255497E-01
      0.00000000000000E+00   1.02814355054740E-10   0.00000000000000E+00   0.00000000000000E+00  -4.53700552782325E-10