DF-ISE text

Info {
  version   = 1.0
  type      = xyplot
  datasets  = [
    "time"
    "source OuterVoltage" "source InnerVoltage" "source QuasiFermiPotential" "source DisplacementCurrent" "source eCurrent"
    "source hCurrent" "source TotalCurrent" "source Charge" "gate OuterVoltage" "gate InnerVoltage"
    "gate QuasiFermiPotential" "gate DisplacementCurrent" "gate eCurrent" "gate hCurrent" "gate TotalCurrent"
    "gate Charge" "substrate OuterVoltage" "substrate InnerVoltage" "substrate QuasiFermiPotential" "substrate DisplacementCurrent"
    "substrate eCurrent" "substrate hCurrent" "substrate TotalCurrent" "substrate Charge" "drain OuterVoltage"
    "drain InnerVoltage" "drain QuasiFermiPotential" "drain DisplacementCurrent" "drain eCurrent" "drain hCurrent"
    "drain TotalCurrent" "drain Charge" ]
  functions = [
    Time
    OuterVoltage InnerVoltage QuasiFermiPotential DisplacementCurrent eCurrent
    hCurrent TotalCurrent Charge OuterVoltage InnerVoltage
    QuasiFermiPotential DisplacementCurrent eCurrent hCurrent TotalCurrent
    Charge OuterVoltage InnerVoltage QuasiFermiPotential DisplacementCurrent
    eCurrent hCurrent TotalCurrent Charge OuterVoltage
    InnerVoltage QuasiFermiPotential DisplacementCurrent eCurrent hCurrent
    TotalCurrent Charge ]
}

Data {
      0.00000000000000E+00
      0.00000000000000E+00   0.00000000000000E+00   0.00000000000000E+00   0.00000000000000E+00   4.74025850792516E-22
      3.40189519052785E-34   4.74025850792856E-22   5.90577571892699E-18   0.00000000000000E+00   0.00000000000000E+00
      0.00000000000000E+00   0.00000000000000E+00   0.00000000000000E+00   0.00000000000000E+00   0.00000000000000E+00
      2.77136596131032E-18   0.00000000000000E+00   0.00000000000000E+00   0.00000000000000E+00   0.00000000000000E+00
     -1.94907162998631E-19  -6.92821310699592E-34  -1.94907162998632E-19  -1.44927044330828E-17   0.00000000000000E+00
      0.00000000000000E+00   0.00000000000000E+00   0.00000000000000E+00   1.94433137147838E-19   3.52631791646808E-34
      1.94433137147839E-19   5.81556275284557E-18
      0.00000000000000E+00
      0.00000000000000E+00   0.00000000000000E+00   0.00000000000000E+00   0.00000000000000E+00  -2.56064478753944E-19
      3.25129299048670E-34  -2.56064478753944E-19   5.90567067141572E-18   0.00000000000000E+00   0.00000000000000E+00
      0.00000000000000E+00   0.00000000000000E+00   0.00000000000000E+00   0.00000000000000E+00   0.00000000000000E+00
      2.77118913885443E-18   0.00000000000000E+00   0.00000000000000E+00   0.00000000000000E+00   0.00000000000000E+00
      3.25311144129902E-18  -6.39722812690604E-34   3.25311144129902E-18  -1.44923264231855E-17   0.00000000000000E+00
      0.00000000000000E+00   0.00000000000000E+00   0.00000000000000E+00  -2.99704696254507E-18   3.14593513641934E-34
     -2.99704696254507E-18   5.81546661291536E-18
      1.00000000000000E-03
      0.00000000000000E+00   1.19727137910898E-12   0.00000000000000E+00   0.00000000000000E+00  -6.65657951352122E-12
      3.59681547094616E-34  -6.65657951352122E-12   5.90563251767558E-18   0.00000000000000E+00   0.00000000000000E+00
      0.00000000000000E+00   0.00000000000000E+00   0.00000000000000E+00   0.00000000000000E+00   0.00000000000000E+00
      2.77049225996920E-18   0.00000000000000E+00   0.00000000000000E+00   0.00000000000000E+00   0.00000000000000E+00
     -3.25519679210723E-19  -7.26876723584374E-34  -3.25519679210724E-19  -1.44923154349557E-17   5.00000000000000E-05
      4.99999987890220E-05   0.00000000000000E+00   0.00000000000000E+00   6.65657983904090E-12   3.67195176489758E-34
      6.65657983904090E-12   5.81619065731094E-18
      2.09333333333333E-03
      0.00000000000000E+00   2.50228540405790E-12   0.00000000000000E+00   0.00000000000000E+00  -1.39122505749972E-11
      3.03615854445998E-34  -1.39122505749972E-11   5.90559080320057E-18   0.00000000000000E+00   0.00000000000000E+00
      0.00000000000000E+00   0.00000000000000E+00   0.00000000000000E+00   0.00000000000000E+00   0.00000000000000E+00
      2.76973034953188E-18   0.00000000000000E+00   0.00000000000000E+00   0.00000000000000E+00   0.00000000000000E+00
     -2.12939347363922E-18  -6.29259619535905E-34  -2.12939347363922E-18  -1.44923034375967E-17   1.04666666666667E-04
      1.04666664135724E-04   0.00000000000000E+00   0.00000000000000E+00   1.39122527043906E-11   3.25643765089907E-34
      1.39122527043906E-11   5.81698228486426E-18
      3.29600000000000E-03
      0.00000000000000E+00   3.93282210829492E-12   0.00000000000000E+00   0.00000000000000E+00  -2.18656891372812E-11
      3.59656709952204E-34  -2.18656891372812E-11   5.90554491761780E-18   0.00000000000000E+00   0.00000000000000E+00
      0.00000000000000E+00   0.00000000000000E+00   0.00000000000000E+00   0.00000000000000E+00   0.00000000000000E+00
      2.76889226068647E-18   0.00000000000000E+00   0.00000000000000E+00   0.00000000000000E+00   0.00000000000000E+00
     -7.64758758047011E-19  -6.84711336749694E-34  -7.64758758047012E-19  -1.44922902603223E-17   1.64800000000000E-04
      1.64799996022136E-04   0.00000000000000E+00   0.00000000000000E+00   2.18656899020400E-11   3.25054626797491E-34
      2.18656899020400E-11   5.81785308201802E-18
      4.61893333333333E-03
      0.00000000000000E+00   5.50021254781592E-12   0.00000000000000E+00   0.00000000000000E+00  -3.05801298600048E-11
      3.19705910749366E-34  -3.05801298600048E-11   5.90549444388854E-18   0.00000000000000E+00   0.00000000000000E+00
      0.00000000000000E+00   0.00000000000000E+00   0.00000000000000E+00   0.00000000000000E+00   0.00000000000000E+00
      2.76797037823893E-18   0.00000000000000E+00   0.00000000000000E+00   0.00000000000000E+00   0.00000000000000E+00
     -6.00253959508602E-19  -6.31592953321727E-34  -6.00253959508603E-19  -1.44922757892868E-17   2.30946666666667E-04
      2.30946661103453E-04   0.00000000000000E+00   0.00000000000000E+00   3.05801304602588E-11   3.11887042572361E-34
      3.05801304602588E-11   5.81881096715927E-18
      6.07416000000000E-03
      0.00000000000000E+00   7.21678191712908E-12   0.00000000000000E+00   0.00000000000000E+00  -4.01238635936818E-11
      3.06385065856122E-34  -4.01238635936818E-11   5.90543892328506E-18   0.00000000000000E+00   0.00000000000000E+00
      0.00000000000000E+00   0.00000000000000E+00   0.00000000000000E+00   0.00000000000000E+00   0.00000000000000E+00
      2.76695632602924E-18   0.00000000000000E+00   0.00000000000000E+00   0.00000000000000E+00   0.00000000000000E+00
     -4.95595736273905E-19  -6.31939546557803E-34  -4.95595736273905E-19  -1.44922599001246E-17   3.03708000000000E-04
      3.03707992700558E-04   0.00000000000000E+00   0.00000000000000E+00   4.01238640892776E-11   3.25554480701682E-34
      4.01238640892776E-11   5.81986465081029E-18
      7.67490933333333E-03
      0.00000000000000E+00   9.09572908957441E-12   0.00000000000000E+00   0.00000000000000E+00  -5.05704265227089E-11
      3.32654491542393E-34  -5.05704265227089E-11   5.90537785122498E-18   0.00000000000000E+00   0.00000000000000E+00
      0.00000000000000E+00   0.00000000000000E+00   0.00000000000000E+00   0.00000000000000E+00   0.00000000000000E+00
      2.76584089095035E-18   0.00000000000000E+00   0.00000000000000E+00   0.00000000000000E+00   0.00000000000000E+00
     -1.21179826281788E-19  -6.88416332195833E-34  -1.21179826281788E-19  -1.44922424570789E-17   3.83745466666667E-04
      3.83745457466758E-04   0.00000000000000E+00   0.00000000000000E+00   5.05704266438888E-11   3.55761840653440E-34
      5.05704266438888E-11   5.82102371490351E-18
      9.43573360000000E-03
      0.00000000000000E+00   1.11512766150101E-11   0.00000000000000E+00   0.00000000000000E+00  -6.19987761337521E-11
      3.05561992511817E-34  -6.19987761337521E-11   5.90531067268960E-18   0.00000000000000E+00   0.00000000000000E+00
      0.00000000000000E+00   0.00000000000000E+00   0.00000000000000E+00   0.00000000000000E+00   0.00000000000000E+00
      2.76461393939290E-18   0.00000000000000E+00   0.00000000000000E+00   0.00000000000000E+00   0.00000000000000E+00
     -1.11129010462345E-18  -6.30519379508289E-34  -1.11129010462345E-18  -1.44922233120786E-17   4.71786680000000E-04
      4.71786668721000E-04   0.00000000000000E+00   0.00000000000000E+00   6.19987772450422E-11   3.24957386996473E-34
      6.19987772450422E-11   5.82229869999606E-18
      1.13726402933333E-02
      0.00000000000000E+00   1.33986097976754E-11   0.00000000000000E+00   0.00000000000000E+00  -7.44934278988739E-11
      3.07247218921247E-34  -7.44934278988739E-11   5.90523677718486E-18   0.00000000000000E+00   0.00000000000000E+00
      0.00000000000000E+00   0.00000000000000E+00   0.00000000000000E+00   0.00000000000000E+00   0.00000000000000E+00
      2.76326432536342E-18   0.00000000000000E+00   0.00000000000000E+00   0.00000000000000E+00   0.00000000000000E+00
     -1.75648127521356E-18  -6.13727119547160E-34  -1.75648127521356E-18  -1.44922023037694E-17   5.68632014666667E-04
      5.68632001114594E-04   0.00000000000000E+00   0.00000000000000E+00   7.44934296553551E-11   3.06479900625914E-34
      7.44934296553551E-11   5.82370120122110E-18
      1.35032376560000E-02
      0.00000000000000E+00   1.58539616179576E-11   0.00000000000000E+00   0.00000000000000E+00  -8.81445323342932E-11
      3.20510518602546E-34  -8.81445323342932E-11   5.90515549319928E-18   0.00000000000000E+00   0.00000000000000E+00
      0.00000000000000E+00   0.00000000000000E+00   0.00000000000000E+00   0.00000000000000E+00   0.00000000000000E+00
      2.76177978944942E-18   0.00000000000000E+00   0.00000000000000E+00   0.00000000000000E+00   0.00000000000000E+00
      2.25214059674705E-19  -6.48339912118217E-34   2.25214059674704E-19  -1.44921792565010E-17   6.75161882800000E-04
      6.75161866764452E-04   0.00000000000000E+00   0.00000000000000E+00   8.81445321090792E-11   3.27829393515672E-34
      8.81445321090792E-11   5.82524397385226E-18
      1.58468947549333E-02
      0.00000000000000E+00   1.85345555025054E-11   0.00000000000000E+00   0.00000000000000E+00  -1.03047871386654E-10
      3.48955156532264E-34  -1.03047871386654E-10   5.90506608210895E-18   0.00000000000000E+00   0.00000000000000E+00
      0.00000000000000E+00   0.00000000000000E+00   0.00000000000000E+00   0.00000000000000E+00   0.00000000000000E+00
      2.76014684772289E-18   0.00000000000000E+00   0.00000000000000E+00   0.00000000000000E+00   0.00000000000000E+00
     -6.04917816472324E-19  -6.42336184389283E-34  -6.04917816472324E-19  -1.44921539792780E-17   7.92344737746667E-04
      7.92344718999832E-04   0.00000000000000E+00   0.00000000000000E+00   1.03047871991572E-10   2.93381027857020E-34
      1.03047871991572E-10   5.82694104944613E-18
      1.84249175637600E-02
      0.00000000000000E+00   2.14586173240441E-11   0.00000000000000E+00   0.00000000000000E+00  -1.19304749835634E-10
      3.38716406231319E-34  -1.19304749835634E-10   5.90496773147409E-18   0.00000000000000E+00   0.00000000000000E+00
      0.00000000000000E+00   0.00000000000000E+00   0.00000000000000E+00   0.00000000000000E+00   0.00000000000000E+00
      2.75835066958516E-18   0.00000000000000E+00   0.00000000000000E+00   0.00000000000000E+00   0.00000000000000E+00
     -1.89454683071076E-18  -6.61316384236223E-34  -1.89454683071076E-18  -1.44921262646842E-17   9.21245878188001E-04
      9.21245856483607E-04   0.00000000000000E+00   0.00000000000000E+00   1.19304751730181E-10   3.22599978004904E-34
      1.19304751730181E-10   5.82880786362497E-18
      2.12607426534693E-02
      0.00000000000000E+00   2.46453223252711E-11   0.00000000000000E+00   0.00000000000000E+00  -1.37021753537164E-10
      3.49307184646287E-34  -1.37021753537164E-10   5.90485954766727E-18   0.00000000000000E+00   0.00000000000000E+00
      0.00000000000000E+00   0.00000000000000E+00   0.00000000000000E+00   0.00000000000000E+00   0.00000000000000E+00
      2.75637494345736E-18   0.00000000000000E+00   0.00000000000000E+00   0.00000000000000E+00   0.00000000000000E+00
     -1.28315979469127E-18  -6.63736977506640E-34  -1.28315979469127E-18  -1.44920958877933E-17   1.06303713267347E-03
      1.06303710774587E-03   0.00000000000000E+00   0.00000000000000E+00   1.37021754820323E-10   3.14429792860353E-34
      1.37021754820323E-10   5.83086139666870E-18
      2.43801502521496E-02
      0.00000000000000E+00   2.81147328121242E-11   0.00000000000000E+00   0.00000000000000E+00  -1.56310341969561E-10
      3.57977377632613E-34  -1.56310341969561E-10   5.90474054776619E-18   0.00000000000000E+00   0.00000000000000E+00
      0.00000000000000E+00   0.00000000000000E+00   0.00000000000000E+00   0.00000000000000E+00   0.00000000000000E+00
      2.75420172911377E-18   0.00000000000000E+00   0.00000000000000E+00   0.00000000000000E+00   0.00000000000000E+00
     -2.04096026824537E-18  -6.45960924507625E-34  -2.04096026824538E-18  -1.44920626050833E-17   1.21900751260748E-03
      1.21900748417074E-03   0.00000000000000E+00   0.00000000000000E+00   1.56310344010521E-10   2.87983546875012E-34
      1.56310344010521E-10   5.83312032820325E-18
      2.78114986106979E-02
      0.00000000000000E+00   3.18876500022214E-11   0.00000000000000E+00   0.00000000000000E+00  -1.77286237003760E-10
      3.18630809828638E-34  -1.77286237003760E-10   5.90460965063820E-18   0.00000000000000E+00   0.00000000000000E+00
      0.00000000000000E+00   0.00000000000000E+00   0.00000000000000E+00   0.00000000000000E+00   0.00000000000000E+00
      2.75181129533702E-18   0.00000000000000E+00   0.00000000000000E+00   0.00000000000000E+00   0.00000000000000E+00
     -4.67660420053814E-18  -6.37293066167909E-34  -4.67660420053814E-18  -1.44920261533767E-17   1.39057493053490E-03
      1.39057489828201E-03   0.00000000000000E+00   0.00000000000000E+00   1.77286241680364E-10   3.18662256339271E-34
      1.77286241680364E-10   5.83560520740154E-18
      3.15859818051010E-02
      0.00000000000000E+00   3.59855300261559E-11   0.00000000000000E+00   0.00000000000000E+00  -2.00068563975350E-10
      3.49520237133296E-34  -2.00068563975350E-10   5.90446566713592E-18   0.00000000000000E+00   0.00000000000000E+00
      0.00000000000000E+00   0.00000000000000E+00   0.00000000000000E+00   0.00000000000000E+00   0.00000000000000E+00
      2.74918194144631E-18   0.00000000000000E+00   0.00000000000000E+00   0.00000000000000E+00   0.00000000000000E+00
     -5.32652423584171E-18  -6.66011015487045E-34  -5.32652423584171E-18  -1.44919862488403E-17   1.57929909025505E-03
      1.57929905385735E-03   0.00000000000000E+00   0.00000000000000E+00   2.00068569301874E-10   3.16490778353750E-34
      2.00068569301874E-10   5.83833864025808E-18
      3.57379133189445E-02
      0.00000000000000E+00   4.04302028549083E-11   0.00000000000000E+00   0.00000000000000E+00  -2.24778697389297E-10
      3.27038283633654E-34  -2.24778697389297E-10   5.90430728931595E-18   0.00000000000000E+00   0.00000000000000E+00
      0.00000000000000E+00   0.00000000000000E+00   0.00000000000000E+00   0.00000000000000E+00   0.00000000000000E+00
      2.74628980110655E-18   0.00000000000000E+00   0.00000000000000E+00   0.00000000000000E+00   0.00000000000000E+00
     -7.88009182448614E-18  -6.27919559165535E-34  -7.88009182448614E-18  -1.44919425860757E-17   1.78689566594722E-03
      1.78689562505392E-03   0.00000000000000E+00   0.00000000000000E+00   2.24778705269388E-10   3.00881275531880E-34
      2.24778705269388E-10   5.84134549565333E-18
      4.03050379841723E-02
      0.00000000000000E+00   4.52436572262415E-11   0.00000000000000E+00   0.00000000000000E+00  -2.51538756855290E-10
      3.16647676441810E-34  -2.51538756855290E-10   5.90413307858365E-18   0.00000000000000E+00   0.00000000000000E+00
      0.00000000000000E+00   0.00000000000000E+00   0.00000000000000E+00   0.00000000000000E+00   0.00000000000000E+00
      2.74310862667348E-18   0.00000000000000E+00   0.00000000000000E+00   0.00000000000000E+00   0.00000000000000E+00
     -1.06072344948126E-17  -6.33067937381761E-34  -1.06072344948126E-17  -1.44918948373562E-17   2.01525189920861E-03
      2.01525185344671E-03   0.00000000000000E+00   0.00000000000000E+00   2.51538767462525E-10   3.16420260939951E-34
      2.51538767462525E-10   5.84465313209905E-18
      4.53288751159228E-02
      0.00000000000000E+00   5.04476464969333E-11   0.00000000000000E+00   0.00000000000000E+00  -2.80469701697457E-10
      3.42034749669443E-34  -2.80469701697457E-10   5.90394145265675E-18   0.00000000000000E+00   0.00000000000000E+00
      0.00000000000000E+00   0.00000000000000E+00   0.00000000000000E+00   0.00000000000000E+00   0.00000000000000E+00
      2.73960955215901E-18   0.00000000000000E+00   0.00000000000000E+00   0.00000000000000E+00   0.00000000000000E+00
     -9.83894034371797E-18  -6.74689901336218E-34  -9.83894034371797E-18  -1.44918426520624E-17   2.26644375579614E-03
      2.26644370477061E-03   0.00000000000000E+00   0.00000000000000E+00   2.80469711536397E-10   3.32655151666776E-34
      2.80469711536397E-10   5.84829164724660E-18
      5.08550959608485E-02
      0.00000000000000E+00   5.60633272637355E-11   0.00000000000000E+00   0.00000000000000E+00  -3.11688916816468E-10
      3.40702632921958E-34  -3.11688916816468E-10   5.90373067123160E-18   0.00000000000000E+00   0.00000000000000E+00
      0.00000000000000E+00   0.00000000000000E+00   0.00000000000000E+00   0.00000000000000E+00   0.00000000000000E+00
      2.73576083271613E-18   0.00000000000000E+00   0.00000000000000E+00   0.00000000000000E+00   0.00000000000000E+00
     -1.85116869099404E-17  -6.30641597149798E-34  -1.85116869099404E-17  -1.44917856563982E-17   2.54275479804242E-03
      2.54275474133687E-03   0.00000000000000E+00   0.00000000000000E+00   3.11688935328155E-10   2.89938964227840E-34
      3.11688935328155E-10   5.85229415245038E-18
      5.69339388902666E-02
      0.00000000000000E+00   6.21106607572220E-11   0.00000000000000E+00   0.00000000000000E+00  -3.45307348957030E-10
      3.28690814317439E-34  -3.45307348957030E-10   5.90349882022254E-18   0.00000000000000E+00   0.00000000000000E+00
      0.00000000000000E+00   0.00000000000000E+00   0.00000000000000E+00   0.00000000000000E+00   0.00000000000000E+00
      2.73152755834087E-18   0.00000000000000E+00   0.00000000000000E+00   0.00000000000000E+00   0.00000000000000E+00
     -3.20863973444032E-17  -6.19193073271832E-34  -3.20863973444032E-17  -1.44917234534744E-17   2.84669694451333E-03
      2.84669688169114E-03   0.00000000000000E+00   0.00000000000000E+00   3.45307381043427E-10   2.90502258954394E-34
      3.45307381043427E-10   5.85669707491092E-18
      6.36206661126266E-02
      0.00000000000000E+00   6.86078340814854E-11   0.00000000000000E+00   0.00000000000000E+00  -3.81425969491415E-10
      3.54200037008617E-34  -3.81425969491415E-10   5.90324379443343E-18   0.00000000000000E+00   0.00000000000000E+00
      0.00000000000000E+00   0.00000000000000E+00   0.00000000000000E+00   0.00000000000000E+00   0.00000000000000E+00
      2.72687133926509E-18   0.00000000000000E+00   0.00000000000000E+00   0.00000000000000E+00   0.00000000000000E+00
     -4.67779636464831E-17  -6.49916569957573E-34  -4.67779636464831E-17  -1.44916556238751E-17   3.18103330563133E-03
      3.18103323623749E-03   0.00000000000000E+00   0.00000000000000E+00   3.81426016269378E-10   2.95716532948956E-34
      3.81426016269378E-10   5.86154049017663E-18
      7.09760660572226E-02
      0.00000000000000E+00   7.55704885337314E-11   0.00000000000000E+00   0.00000000000000E+00  -4.20131613762285E-10
      3.44576730483628E-34  -4.20131613762285E-10   5.90296327850599E-18   0.00000000000000E+00   0.00000000000000E+00
      0.00000000000000E+00   0.00000000000000E+00   0.00000000000000E+00   0.00000000000000E+00   0.00000000000000E+00
      2.72174996027397E-18   0.00000000000000E+00   0.00000000000000E+00   0.00000000000000E+00   0.00000000000000E+00
     -6.77645306561867E-17  -6.20285532975240E-34  -6.77645306561867E-17  -1.44915817268450E-17   3.54880330286113E-03
      3.54880322642481E-03   0.00000000000000E+00   0.00000000000000E+00   4.20131681526816E-10   2.75708802491612E-34
      4.20131681526816E-10   5.86686848806491E-18
      7.90670059962782E-02
      0.00000000000000E+00   8.30108713096713E-11   0.00000000000000E+00   0.00000000000000E+00  -4.61492155097055E-10
      3.51741512704837E-34  -4.61492155097055E-10   5.90265472597443E-18   0.00000000000000E+00   0.00000000000000E+00
      0.00000000000000E+00   0.00000000000000E+00   0.00000000000000E+00   0.00000000000000E+00   0.00000000000000E+00
      2.71611700091597E-18   0.00000000000000E+00   0.00000000000000E+00   0.00000000000000E+00   0.00000000000000E+00
     -9.80027589524829E-17  -6.40290878837798E-34  -9.80027589524829E-17  -1.44915013022635E-17   3.95335029981391E-03
      3.95335021585190E-03   0.00000000000000E+00   0.00000000000000E+00   4.61492253099814E-10   2.88549366132962E-34
      4.61492253099814E-10   5.87272957537307E-18
      8.79670399292394E-02
      0.00000000000000E+00   9.09368681338273E-11   0.00000000000000E+00   0.00000000000000E+00  -5.05550903974307E-10
      3.25400798786475E-34  -5.05550903974307E-10   5.90231533623917E-18   0.00000000000000E+00   0.00000000000000E+00
      0.00000000000000E+00   0.00000000000000E+00   0.00000000000000E+00   0.00000000000000E+00   0.00000000000000E+00
      2.70992141829021E-18   0.00000000000000E+00   0.00000000000000E+00   0.00000000000000E+00   0.00000000000000E+00
      2.72727468178827E-19  -6.28706716364659E-34   2.72727468178827E-19  -1.44914138736221E-17   4.39835199646197E-03
      4.39835190448313E-03   0.00000000000000E+00   0.00000000000000E+00   5.05550903701580E-10   3.03305917578184E-34
      5.05550903701580E-10   5.87917711909269E-18
      9.76977436959436E-02
      0.00000000000000E+00   9.93006075907354E-11   0.00000000000000E+00   0.00000000000000E+00  -5.52042324547833E-10
      3.04718523059500E-34  -5.52042324547833E-10   5.90194429165084E-18   0.00000000000000E+00   0.00000000000000E+00
      0.00000000000000E+00   0.00000000000000E+00   0.00000000000000E+00   0.00000000000000E+00   0.00000000000000E+00
      2.70314838517321E-18   0.00000000000000E+00   0.00000000000000E+00   0.00000000000000E+00   0.00000000000000E+00
     -5.69495514881070E-21  -5.78604873804790E-34  -5.69495514881128E-21  -1.44913195235640E-17   4.88488718479718E-03
      4.88488708435867E-03   0.00000000000000E+00   0.00000000000000E+00   5.52042324553528E-10   2.73886350745290E-34
      5.52042324553528E-10   5.88622684673994E-18
      1.07697743695944E-01
      0.00000000000000E+00   1.07576495018082E-10   0.00000000000000E+00   0.00000000000000E+00  -5.98044353832624E-10
      3.15077673715580E-34  -5.98044353832624E-10   5.90156300172874E-18   0.00000000000000E+00   0.00000000000000E+00
      0.00000000000000E+00   0.00000000000000E+00   0.00000000000000E+00   0.00000000000000E+00   0.00000000000000E+00
      2.69618878102251E-18   0.00000000000000E+00   0.00000000000000E+00   0.00000000000000E+00   0.00000000000000E+00
     -5.53200382122742E-19  -6.15834916109759E-34  -5.53200382122743E-19  -1.44912239030891E-17   5.38488718479718E-03
      5.38488707598782E-03   0.00000000000000E+00   0.00000000000000E+00   5.98044354385825E-10   3.00757242394179E-34
      5.98044354385825E-10   5.89347212033788E-18
      1.17697743695944E-01
      0.00000000000000E+00   1.15538469133468E-10   0.00000000000000E+00   0.00000000000000E+00  -6.42300532555509E-10
      3.27947034968393E-34  -6.42300532555509E-10   5.90118173526776E-18   0.00000000000000E+00   0.00000000000000E+00
      0.00000000000000E+00   0.00000000000000E+00   0.00000000000000E+00   0.00000000000000E+00   0.00000000000000E+00
      2.68923005770326E-18   0.00000000000000E+00   0.00000000000000E+00   0.00000000000000E+00   0.00000000000000E+00
      6.15314265719745E-19  -5.95534507106404E-34   6.15314265719744E-19  -1.44911296340313E-17   5.88488718479718E-03
      5.88488706793445E-03   0.00000000000000E+00   0.00000000000000E+00   6.42300531940194E-10   2.67587472138011E-34
      6.42300531940194E-10   5.90071784106033E-18
      1.27697743695944E-01
      0.00000000000000E+00   1.23196342554772E-10   0.00000000000000E+00   0.00000000000000E+00  -6.84865494282688E-10
      3.19404864424075E-34  -6.84865494282688E-10   5.90080049212139E-18   0.00000000000000E+00   0.00000000000000E+00
      0.00000000000000E+00   0.00000000000000E+00   0.00000000000000E+00   0.00000000000000E+00   0.00000000000000E+00
      2.68227221216212E-18   0.00000000000000E+00   0.00000000000000E+00   0.00000000000000E+00   0.00000000000000E+00
     -1.15551599076113E-18  -5.96993338103245E-34  -1.15551599076113E-18  -1.44910367087516E-17   6.38488718479718E-03
      6.38488706018865E-03   0.00000000000000E+00   0.00000000000000E+00   6.84865495438204E-10   2.77588473679172E-34
      6.84865495438204E-10   5.90796400446811E-18
      1.37697743695944E-01
      0.00000000000000E+00   1.30559806055598E-10   0.00000000000000E+00   0.00000000000000E+00  -7.25793313275611E-10
      3.43657688847985E-34  -7.25793313275611E-10   5.90041927214219E-18   0.00000000000000E+00   0.00000000000000E+00
      0.00000000000000E+00   0.00000000000000E+00   0.00000000000000E+00   0.00000000000000E+00   0.00000000000000E+00
      2.67531524135698E-18   0.00000000000000E+00   0.00000000000000E+00   0.00000000000000E+00   0.00000000000000E+00
     -1.41051165477277E-19  -6.30851999401805E-34  -1.41051165477277E-19  -1.44909451196316E-17   6.88488718479718E-03
      6.88488705274060E-03   0.00000000000000E+00   0.00000000000000E+00   7.25793313416662E-10   2.87194310553820E-34
      7.25793313416662E-10   5.91521060613251E-18
      1.47697743695944E-01
      0.00000000000000E+00   1.37638425796086E-10   0.00000000000000E+00   0.00000000000000E+00  -7.65137212585538E-10
      3.24661674277700E-34  -7.65137212585538E-10   5.90003807518335E-18   0.00000000000000E+00   0.00000000000000E+00
      0.00000000000000E+00   0.00000000000000E+00   0.00000000000000E+00   0.00000000000000E+00   0.00000000000000E+00
      2.66835914230200E-18   0.00000000000000E+00   0.00000000000000E+00   0.00000000000000E+00   0.00000000000000E+00
      1.99167979779028E-19  -5.94703408321015E-34   1.99167979779027E-19  -1.44908548591441E-17   7.38488718479718E-03
      7.38488704558063E-03   0.00000000000000E+00   0.00000000000000E+00   7.65137212386370E-10   2.70041734043316E-34
      7.65137212386370E-10   5.92245764165875E-18
      1.57697743695944E-01
      0.00000000000000E+00   1.44441581939248E-10   0.00000000000000E+00   0.00000000000000E+00  -8.02949506832747E-10
      2.76842125572035E-34  -8.02949506832747E-10   5.89965690109789E-18   0.00000000000000E+00   0.00000000000000E+00
      0.00000000000000E+00   0.00000000000000E+00   0.00000000000000E+00   0.00000000000000E+00   0.00000000000000E+00
      2.66140391203709E-18   0.00000000000000E+00   0.00000000000000E+00   0.00000000000000E+00   0.00000000000000E+00
     -7.10791719035556E-20  -5.43809751997502E-34  -7.10791719035562E-20  -1.44907659198042E-17   7.88488718479718E-03
      7.88488703869926E-03   0.00000000000000E+00   0.00000000000000E+00   8.02949506903826E-10   2.66967626425467E-34
      8.02949506903826E-10   5.92970510666923E-18
      1.67697743695944E-01
      0.00000000000000E+00   1.50978492189059E-10   0.00000000000000E+00   0.00000000000000E+00  -8.39281504569176E-10
      3.33657344721873E-34  -8.39281504569176E-10   5.89927574973870E-18   0.00000000000000E+00   0.00000000000000E+00
      0.00000000000000E+00   0.00000000000000E+00   0.00000000000000E+00   0.00000000000000E+00   0.00000000000000E+00
      2.65444954762484E-18   0.00000000000000E+00   0.00000000000000E+00   0.00000000000000E+00   0.00000000000000E+00
     -1.33507193477344E-18  -5.83388832287653E-34  -1.33507193477344E-18  -1.44906782941643E-17   8.38488718479718E-03
      8.38488703208717E-03   0.00000000000000E+00   0.00000000000000E+00   8.39281505904247E-10   2.49731487565779E-34
      8.39281505904247E-10   5.93695299680085E-18
      1.77697743695944E-01
      0.00000000000000E+00   1.57258153175985E-10   0.00000000000000E+00   0.00000000000000E+00  -8.74183344933212E-10
      3.34059521214217E-34  -8.74183344933212E-10   5.89889462095965E-18   0.00000000000000E+00   0.00000000000000E+00
      0.00000000000000E+00   0.00000000000000E+00   0.00000000000000E+00   0.00000000000000E+00   0.00000000000000E+00
      2.64749604619947E-18   0.00000000000000E+00   0.00000000000000E+00   0.00000000000000E+00   0.00000000000000E+00
     -1.61675147131503E-18  -5.83104706845941E-34  -1.61675147131503E-18  -1.44905919748863E-17   8.88488718479718E-03
      8.88488702573526E-03   0.00000000000000E+00   0.00000000000000E+00   8.74183346549963E-10   2.49045185631723E-34
      8.74183346549963E-10   5.94420130772711E-18
      1.87697743695944E-01
      0.00000000000000E+00   1.63289385225517E-10   0.00000000000000E+00   0.00000000000000E+00  -9.07704170194165E-10
      3.26567281455110E-34  -9.07704170194165E-10   5.89851351461426E-18   0.00000000000000E+00   0.00000000000000E+00
      0.00000000000000E+00   0.00000000000000E+00   0.00000000000000E+00   0.00000000000000E+00   0.00000000000000E+00
      2.64054340486940E-18   0.00000000000000E+00   0.00000000000000E+00   0.00000000000000E+00   0.00000000000000E+00
     -7.97851130244264E-20  -5.83341985709065E-34  -7.97851130244270E-20  -1.44905069546093E-17   9.38488718479718E-03
      9.38488701963461E-03   0.00000000000000E+00   0.00000000000000E+00   9.07704170273950E-10   2.56774704253955E-34
      9.07704170273950E-10   5.95145003512561E-18
      1.97697743695944E-01
      0.00000000000000E+00   1.69080788051164E-10   0.00000000000000E+00   0.00000000000000E+00  -9.39891872987337E-10