DF-ISE text

Info {
  version   = 1.0
  type      = xyplot
  datasets  = [
    "time"
    "source OuterVoltage" "source InnerVoltage" "source QuasiFermiPotential" "source DisplacementCurrent" "source eCurrent"
    "source hCurrent" "source TotalCurrent" "source Charge" "gate OuterVoltage" "gate InnerVoltage"
    "gate QuasiFermiPotential" "gate DisplacementCurrent" "gate eCurrent" "gate hCurrent" "gate TotalCurrent"
    "gate Charge" "substrate OuterVoltage" "substrate InnerVoltage" "substrate QuasiFermiPotential" "substrate DisplacementCurrent"
    "substrate eCurrent" "substrate hCurrent" "substrate TotalCurrent" "substrate Charge" "drain OuterVoltage"
    "drain InnerVoltage" "drain QuasiFermiPotential" "drain DisplacementCurrent" "drain eCurrent" "drain hCurrent"
    "drain TotalCurrent" "drain Charge" ]
  functions = [
    Time
    OuterVoltage InnerVoltage QuasiFermiPotential DisplacementCurrent eCurrent
    hCurrent TotalCurrent Charge OuterVoltage InnerVoltage
    QuasiFermiPotential DisplacementCurrent eCurrent hCurrent TotalCurrent
    Charge OuterVoltage InnerVoltage QuasiFermiPotential DisplacementCurrent
    eCurrent hCurrent TotalCurrent Charge OuterVoltage
    InnerVoltage QuasiFermiPotential DisplacementCurrent eCurrent hCurrent
    TotalCurrent Charge ]
}

Data {
      0.00000000000000E+00
      0.00000000000000E+00   0.00000000000000E+00   0.00000000000000E+00   0.00000000000000E+00  -7.22912176791485E-22
      7.21593982936817E-34  -7.22912176790764E-22   5.36709298239248E-18   0.00000000000000E+00   0.00000000000000E+00
      0.00000000000000E+00   0.00000000000000E+00   0.00000000000000E+00   0.00000000000000E+00   0.00000000000000E+00
      2.30198669602714E-18   0.00000000000000E+00   0.00000000000000E+00   0.00000000000000E+00   0.00000000000000E+00
     -5.86442731458117E-20  -2.25725061911459E-33  -5.86442731458140E-20  -1.37211014490964E-17   0.00000000000000E+00
      0.00000000000000E+00   0.00000000000000E+00   0.00000000000000E+00   5.93671853226031E-20   1.53565663617777E-33
      5.93671853226046E-20   6.05202177067686E-18
      0.00000000000000E+00
      0.00000000000000E+00   0.00000000000000E+00   0.00000000000000E+00   0.00000000000000E+00  -1.73811062494494E-19
      7.73264732146185E-34  -1.73811062494493E-19   5.36281925319882E-18   0.00000000000000E+00   0.00000000000000E+00
      0.00000000000000E+00   0.00000000000000E+00   0.00000000000000E+00   0.00000000000000E+00   0.00000000000000E+00
      2.29461024914274E-18   0.00000000000000E+00   0.00000000000000E+00   0.00000000000000E+00   0.00000000000000E+00
      1.00556034502557E-17  -2.29548737475929E-33   1.00556034502557E-17  -1.37054413524674E-17   0.00000000000000E+00
     -4.68595597997585E-19   0.00000000000000E+00   0.00000000000000E+00  -9.88179238776124E-18   1.52222264261310E-33
     -9.88179238776123E-18   6.04801185012589E-18
      1.00000000000000E-03
      0.00000000000000E+00   1.28050776086810E-12   0.00000000000000E+00   0.00000000000000E+00  -6.61621293756586E-12
      7.61996233519699E-34  -6.61621293756586E-12   5.36278130312226E-18   0.00000000000000E+00   0.00000000000000E+00
      0.00000000000000E+00   0.00000000000000E+00   0.00000000000000E+00   0.00000000000000E+00   0.00000000000000E+00
      2.29392781731437E-18   0.00000000000000E+00   0.00000000000000E+00   0.00000000000000E+00   0.00000000000000E+00
     -4.84436267860643E-18  -2.25634042412703E-33  -4.84436267860643E-18  -1.37054278136326E-17   5.00000000000000E-05
      4.99999987068641E-05   0.00000000000000E+00   0.00000000000000E+00   6.61621778192854E-12   1.49434419060733E-33
      6.61621778192854E-12   6.04871869319601E-18
      2.09333333333333E-03
      0.00000000000000E+00   2.67619725691521E-12   0.00000000000000E+00   0.00000000000000E+00  -1.38275170636927E-11
      7.27765751013397E-34  -1.38275170636927E-11   5.36273981128937E-18   0.00000000000000E+00   0.00000000000000E+00
      0.00000000000000E+00   0.00000000000000E+00   0.00000000000000E+00   0.00000000000000E+00   0.00000000000000E+00
      2.29318169927278E-18   0.00000000000000E+00   0.00000000000000E+00   0.00000000000000E+00   0.00000000000000E+00
      7.34687267161264E-18  -2.21335587469846E-33   7.34687267161263E-18  -1.37054130270289E-17   1.04666666666667E-04
      1.04666663964070E-04   0.00000000000000E+00   0.00000000000000E+00   1.38275097168200E-11   1.48559012368506E-33
      1.38275097168200E-11   6.04949151646668E-18
      3.29600000000000E-03
      0.00000000000000E+00   4.20600162468281E-12   0.00000000000000E+00   0.00000000000000E+00  -2.17318121367227E-11
      7.23184955128709E-34  -2.17318121367227E-11   5.36269417057663E-18   0.00000000000000E+00   0.00000000000000E+00
      0.00000000000000E+00   0.00000000000000E+00   0.00000000000000E+00   0.00000000000000E+00   0.00000000000000E+00
      2.29236097837674E-18   0.00000000000000E+00   0.00000000000000E+00   0.00000000000000E+00   0.00000000000000E+00
     -1.23319826205594E-17  -2.26781642384780E-33  -1.23319826205594E-17  -1.37053967808794E-17   1.64800000000000E-04
      1.64799995752502E-04   0.00000000000000E+00   0.00000000000000E+00   2.17318244687053E-11   1.54463146871909E-33
      2.17318244687053E-11   6.05034163192605E-18
      4.61893333333333E-03
      0.00000000000000E+00   5.88205233560747E-12   0.00000000000000E+00   0.00000000000000E+00  -3.03917425846864E-11
      7.37347967159384E-34  -3.03917425846864E-11   5.36264396616041E-18   0.00000000000000E+00   0.00000000000000E+00
      0.00000000000000E+00   0.00000000000000E+00   0.00000000000000E+00   0.00000000000000E+00   0.00000000000000E+00
      2.29145819621107E-18   0.00000000000000E+00   0.00000000000000E+00   0.00000000000000E+00   0.00000000000000E+00
     -2.55124472606062E-18  -2.24337320366302E-33  -2.55124472606062E-18  -1.37053789332253E-17   2.30946666666667E-04
      2.30946660726580E-04   0.00000000000000E+00   0.00000000000000E+00   3.03917451359312E-11   1.50602523650363E-33
      3.03917451359312E-11   6.05127677085376E-18
      6.07416000000000E-03
      0.00000000000000E+00   7.71744944822680E-12   0.00000000000000E+00   0.00000000000000E+00  -3.98749321947791E-11
      7.66758050192957E-34  -3.98749321947791E-11   5.36258874174803E-18   0.00000000000000E+00   0.00000000000000E+00
      0.00000000000000E+00   0.00000000000000E+00   0.00000000000000E+00   0.00000000000000E+00   0.00000000000000E+00
      2.29046514890883E-18   0.00000000000000E+00   0.00000000000000E+00   0.00000000000000E+00   0.00000000000000E+00
      1.24768928769545E-18  -2.25374943112598E-33   1.24768928769545E-18  -1.37053593287442E-17   3.03708000000000E-04
      3.03707992206417E-04   0.00000000000000E+00   0.00000000000000E+00   3.98749309470898E-11   1.48699138093302E-33
      3.98749309470898E-11   6.05230543808733E-18
      7.67490933333333E-03
      0.00000000000000E+00   9.72626441975308E-12   0.00000000000000E+00   0.00000000000000E+00  -5.02541585636488E-11
      7.64135741099803E-34  -5.02541585636488E-11   5.36252799543372E-18   0.00000000000000E+00   0.00000000000000E+00
      0.00000000000000E+00   0.00000000000000E+00   0.00000000000000E+00   0.00000000000000E+00   0.00000000000000E+00
      2.28937281268701E-18   0.00000000000000E+00   0.00000000000000E+00   0.00000000000000E+00   0.00000000000000E+00
     -1.25748894297576E-17  -2.28513567016338E-33  -1.25748894297576E-17  -1.37053377975877E-17   3.83745466666667E-04
      3.83745456844458E-04   0.00000000000000E+00   0.00000000000000E+00   5.02541711385382E-11   1.52099992906358E-33
      5.02541711385382E-11   6.05343698946703E-18
      9.43573360000000E-03
      0.00000000000000E+00   1.19236347623840E-11   0.00000000000000E+00   0.00000000000000E+00  -6.16075140125826E-11
      7.40559556777362E-34  -6.16075140125826E-11   5.36246117514063E-18   0.00000000000000E+00   0.00000000000000E+00
      0.00000000000000E+00   0.00000000000000E+00   0.00000000000000E+00   0.00000000000000E+00   0.00000000000000E+00
      2.28817126195252E-18   0.00000000000000E+00   0.00000000000000E+00   0.00000000000000E+00   0.00000000000000E+00
      3.85269490068302E-18  -2.22665022414318E-33   3.85269490068302E-18  -1.37053141541368E-17   4.71786680000000E-04
      4.71786667958769E-04   0.00000000000000E+00   0.00000000000000E+00   6.16075101598877E-11   1.48609066736582E-33
      6.16075101598877E-11   6.05468171704366E-18
      1.13726402933333E-02
      0.00000000000000E+00   1.43257007828971E-11   0.00000000000000E+00   0.00000000000000E+00  -7.40185242673486E-11
      7.40857724958532E-34  -7.40185242673486E-11   5.36238767360787E-18   0.00000000000000E+00   0.00000000000000E+00
      0.00000000000000E+00   0.00000000000000E+00   0.00000000000000E+00   0.00000000000000E+00   0.00000000000000E+00
      2.28684957923882E-18   0.00000000000000E+00   0.00000000000000E+00   0.00000000000000E+00   0.00000000000000E+00
      3.58219023480497E-18  -2.17733840101590E-33   3.58219023480497E-18  -1.37052881956764E-17   5.68632014666667E-04
      5.68632000199689E-04   0.00000000000000E+00   0.00000000000000E+00   7.40185206851584E-11   1.43648067605736E-33
      7.40185206851584E-11   6.05605094282977E-18
      1.35032376560000E-02
      0.00000000000000E+00   1.69497114852545E-11   0.00000000000000E+00   0.00000000000000E+00  -8.75762072071235E-11
      7.59842624776713E-34  -8.75762072071235E-11   5.36230682287692E-18   0.00000000000000E+00   0.00000000000000E+00
      0.00000000000000E+00   0.00000000000000E+00   0.00000000000000E+00   0.00000000000000E+00   0.00000000000000E+00
      2.28539575616017E-18   0.00000000000000E+00   0.00000000000000E+00   0.00000000000000E+00   0.00000000000000E+00
     -2.07752463274635E-18  -2.29527689733428E-33  -2.07752463274635E-18  -1.37052597009890E-17   6.75161882800000E-04
      6.75161865683160E-04   0.00000000000000E+00   0.00000000000000E+00   8.75762092846482E-11   1.53543427255757E-33
      8.75762092846482E-11   6.05755712195188E-18
      1.58468947549333E-02
      0.00000000000000E+00   1.98139594358153E-11   0.00000000000000E+00   0.00000000000000E+00  -1.02375045254350E-10
      7.26575258015235E-34  -1.02375045254350E-10   5.36221788822779E-18   0.00000000000000E+00   0.00000000000000E+00
      0.00000000000000E+00   0.00000000000000E+00   0.00000000000000E+00   0.00000000000000E+00   0.00000000000000E+00
      2.28379658449060E-18   0.00000000000000E+00   0.00000000000000E+00   0.00000000000000E+00   0.00000000000000E+00
     -7.82759449594334E-18  -2.26646693347056E-33  -7.82759449594334E-18  -1.37052284288691E-17   7.92344737746667E-04
      7.92344717737359E-04   0.00000000000000E+00   0.00000000000000E+00   1.02375053081945E-10   1.53989167545532E-33
      1.02375053081945E-10   6.05921395615069E-18
      1.84249175637600E-02
      0.00000000000000E+00   2.29377549905774E-11   0.00000000000000E+00   0.00000000000000E+00  -1.18514851489140E-10
      7.49275912258563E-34  -1.18514851489140E-10   5.36212006150998E-18   0.00000000000000E+00   0.00000000000000E+00
      0.00000000000000E+00   0.00000000000000E+00   0.00000000000000E+00   0.00000000000000E+00   0.00000000000000E+00
      2.28203753638551E-18   0.00000000000000E+00   0.00000000000000E+00   0.00000000000000E+00   0.00000000000000E+00
     -3.57933417755603E-18  -2.25064320801421E-33  -3.57933417755603E-18  -1.37051941165651E-17   9.21245878188001E-04
      9.21245855024126E-04   0.00000000000000E+00   0.00000000000000E+00   1.18514855068474E-10   1.50136729575564E-33
      1.18514855068474E-10   6.06103651866967E-18
      2.12607426534693E-02
      0.00000000000000E+00   2.63414216092216E-11   0.00000000000000E+00   0.00000000000000E+00  -1.36100498505679E-10
      7.18438087901846E-34  -1.36100498505679E-10   5.36201245380789E-18   0.00000000000000E+00   0.00000000000000E+00
      0.00000000000000E+00   0.00000000000000E+00   0.00000000000000E+00   0.00000000000000E+00   0.00000000000000E+00
      2.28010263266740E-18   0.00000000000000E+00   0.00000000000000E+00   0.00000000000000E+00   0.00000000000000E+00
     -4.81435996316404E-18  -2.17744285530085E-33  -4.81435996316404E-18  -1.37051564781540E-17   1.06303713267347E-03
      1.06303710607241E-03   0.00000000000000E+00   0.00000000000000E+00   1.36100503320039E-10   1.45900476739900E-33
      1.36100503320039E-10   6.06304139167873E-18
      2.43801502521496E-02
      0.00000000000000E+00   3.00461416871597E-11   0.00000000000000E+00   0.00000000000000E+00  -1.55241477342023E-10
      7.60030689974399E-34  -1.55241477342023E-10   5.36189408737463E-18   0.00000000000000E+00   0.00000000000000E+00
      0.00000000000000E+00   0.00000000000000E+00   0.00000000000000E+00   0.00000000000000E+00   0.00000000000000E+00
      2.27797429799035E-18   0.00000000000000E+00   0.00000000000000E+00   0.00000000000000E+00   0.00000000000000E+00
     -7.98052251007273E-18  -2.27715689300431E-33  -7.98052251007273E-18  -1.37051152028611E-17   1.21900751260748E-03
      1.21900748226524E-03   0.00000000000000E+00   0.00000000000000E+00   1.55241485322546E-10   1.51712620302991E-33
      1.55241485322546E-10   6.06524681749615E-18
      2.78114986106979E-02
      0.00000000000000E+00   3.40738867347906E-11   0.00000000000000E+00   0.00000000000000E+00  -1.76051249021461E-10
      6.79526280623702E-34  -1.76051249021461E-10   5.36176388676107E-18   0.00000000000000E+00   0.00000000000000E+00
      0.00000000000000E+00   0.00000000000000E+00   0.00000000000000E+00   0.00000000000000E+00   0.00000000000000E+00
      2.27563320158137E-18   0.00000000000000E+00   0.00000000000000E+00   0.00000000000000E+00   0.00000000000000E+00
     -8.87083203635328E-18  -2.08020379075260E-33  -8.87083203635328E-18  -1.37050699533417E-17   1.39057493053490E-03
      1.39057489612527E-03   0.00000000000000E+00   0.00000000000000E+00   1.76051257892293E-10   1.40067751012890E-33
      1.76051257892293E-10   6.06767286499928E-18
      3.15859818051010E-02
      0.00000000000000E+00   3.84472238475184E-11   0.00000000000000E+00   0.00000000000000E+00  -1.98646344386927E-10
      7.25073128708159E-34  -1.98646344386927E-10   5.36162066906050E-18   0.00000000000000E+00   0.00000000000000E+00
      0.00000000000000E+00   0.00000000000000E+00   0.00000000000000E+00   0.00000000000000E+00   0.00000000000000E+00
      2.27305808212795E-18   0.00000000000000E+00   0.00000000000000E+00   0.00000000000000E+00   0.00000000000000E+00
     -2.39312910836175E-19  -2.15963949267997E-33  -2.39312910836177E-19  -1.37050203639448E-17   1.57929909025505E-03
      1.57929905142906E-03   0.00000000000000E+00   0.00000000000000E+00   1.98646344626240E-10   1.43456636397181E-33
      1.98646344626240E-10   6.07034161275628E-18
      3.57379133189445E-02
      0.00000000000000E+00   4.31890828137397E-11   0.00000000000000E+00   0.00000000000000E+00  -2.23145165197263E-10
      7.15203186741301E-34  -2.23145165197263E-10   5.36146313318051E-18   0.00000000000000E+00   0.00000000000000E+00
      0.00000000000000E+00   0.00000000000000E+00   0.00000000000000E+00   0.00000000000000E+00   0.00000000000000E+00
      2.27022555524066E-18   0.00000000000000E+00   0.00000000000000E+00   0.00000000000000E+00   0.00000000000000E+00
     -5.74530675753202E-18  -2.16801272772826E-33  -5.74530675753202E-18  -1.37049660389880E-17   1.78689566594722E-03
      1.78689562233274E-03   0.00000000000000E+00   0.00000000000000E+00   2.23145170942570E-10   1.45280954098696E-33
      2.23145170942570E-10   6.07327735056681E-18
      4.03050379841723E-02
      0.00000000000000E+00   4.83224618368088E-11   0.00000000000000E+00   0.00000000000000E+00  -2.49666445074846E-10
      7.12852217165413E-34  -2.49666445074846E-10   5.36128984804550E-18   0.00000000000000E+00   0.00000000000000E+00
      0.00000000000000E+00   0.00000000000000E+00   0.00000000000000E+00   0.00000000000000E+00   0.00000000000000E+00
      2.26710990176554E-18   0.00000000000000E+00   0.00000000000000E+00   0.00000000000000E+00   0.00000000000000E+00
      6.83658613014331E-18  -2.10305900998511E-33   6.83658613014331E-18  -1.37049065510824E-17   2.01525189920861E-03
      2.01525185041029E-03   0.00000000000000E+00   0.00000000000000E+00   2.49666438238260E-10   1.39020679281970E-33
      2.49666438238260E-10   6.07650680127132E-18
      4.53288751159228E-02
      0.00000000000000E+00   5.38700348519260E-11   0.00000000000000E+00   0.00000000000000E+00  -2.78327224692974E-10
      7.71937302710776E-34  -2.78327224692974E-10   5.36109923962393E-18   0.00000000000000E+00   0.00000000000000E+00
      0.00000000000000E+00   0.00000000000000E+00   0.00000000000000E+00   0.00000000000000E+00   0.00000000000000E+00
      2.26368283505102E-18   0.00000000000000E+00   0.00000000000000E+00   0.00000000000000E+00   0.00000000000000E+00
     -4.70665647728585E-18  -2.18887367224604E-33  -4.70665647728585E-18  -1.37048414395535E-17   2.26644375579614E-03
      2.26644370139573E-03   0.00000000000000E+00   0.00000000000000E+00   2.78327229399630E-10   1.41693636953527E-33
      2.78327229399630E-10   6.08005936487853E-18
      5.08550959608485E-02
      0.00000000000000E+00   5.98536941768341E-11   0.00000000000000E+00   0.00000000000000E+00  -3.09240518046523E-10
      7.30972315082075E-34  -3.09240518046523E-10   5.36088957666277E-18   0.00000000000000E+00   0.00000000000000E+00
      0.00000000000000E+00   0.00000000000000E+00   0.00000000000000E+00   0.00000000000000E+00   0.00000000000000E+00
      2.25991324508996E-18   0.00000000000000E+00   0.00000000000000E+00   0.00000000000000E+00   0.00000000000000E+00
      1.54182247333495E-18  -2.11865535013236E-33   1.54182247333495E-18  -1.37047702090206E-17   2.54275479804242E-03
      2.54275473759958E-03   0.00000000000000E+00   0.00000000000000E+00   3.09240516504701E-10   1.38768303505029E-33
      3.09240516504701E-10   6.08396738726791E-18
      5.69339388902666E-02
      0.00000000000000E+00   6.62939666417034E-11   0.00000000000000E+00   0.00000000000000E+00  -3.42512253315381E-10
      7.35076345152707E-34  -3.42512253315381E-10   5.36065895500175E-18   0.00000000000000E+00   0.00000000000000E+00
      0.00000000000000E+00   0.00000000000000E+00   0.00000000000000E+00   0.00000000000000E+00   0.00000000000000E+00
      2.25576691725327E-18   0.00000000000000E+00   0.00000000000000E+00   0.00000000000000E+00   0.00000000000000E+00
     -6.45748094310371E-18  -2.10085792131722E-33  -6.45748094310371E-18  -1.37046923282137E-17   2.84669694451333E-03
      2.84669687756698E-03   0.00000000000000E+00   0.00000000000000E+00   3.42512259772862E-10   1.36578157616451E-33
      3.42512259772862E-10   6.08826645595873E-18
      6.36206661126266E-02
      0.00000000000000E+00   7.32093383428748E-11   0.00000000000000E+00   0.00000000000000E+00  -3.78237821987201E-10
      7.06744338474890E-34  -3.78237821987201E-10   5.36040528032495E-18   0.00000000000000E+00   0.00000000000000E+00
      0.00000000000000E+00   0.00000000000000E+00   0.00000000000000E+00   0.00000000000000E+00   0.00000000000000E+00
      2.25120622308131E-18   0.00000000000000E+00   0.00000000000000E+00   0.00000000000000E+00   0.00000000000000E+00
      1.51564344723167E-18  -2.08365665111446E-33   1.51564344723166E-18  -1.37046072290875E-17   3.18103330563133E-03
      3.18103323170175E-03   0.00000000000000E+00   0.00000000000000E+00   3.78237820471558E-10   1.37691231263957E-33
      3.78237820471558E-10   6.09299572568132E-18
      7.09760660572226E-02
      0.00000000000000E+00   8.06154491270272E-11   0.00000000000000E+00   0.00000000000000E+00  -4.16497802845187E-10
      7.08591039659894E-34  -4.16497802845187E-10   5.36012624919679E-18   0.00000000000000E+00   0.00000000000000E+00
      0.00000000000000E+00   0.00000000000000E+00   0.00000000000000E+00   0.00000000000000E+00   0.00000000000000E+00
      2.24618978043909E-18   0.00000000000000E+00   0.00000000000000E+00   0.00000000000000E+00   0.00000000000000E+00
     -7.20291950606346E-18  -2.01704289106520E-33  -7.20291950606346E-18  -1.37045143064226E-17   3.54880330286113E-03
      3.54880322145280E-03   0.00000000000000E+00   0.00000000000000E+00   4.16497810048107E-10   1.30845185140531E-33
      4.16497810048107E-10   6.09819827678678E-18
      7.90670059962782E-02
      0.00000000000000E+00   8.85241319702012E-11   0.00000000000000E+00   0.00000000000000E+00  -4.57353176187823E-10
      7.01082653263448E-34  -4.57353176187823E-10   5.35981932821059E-18   0.00000000000000E+00   0.00000000000000E+00
      0.00000000000000E+00   0.00000000000000E+00   0.00000000000000E+00   0.00000000000000E+00   0.00000000000000E+00
      2.24067207995461E-18   0.00000000000000E+00   0.00000000000000E+00   0.00000000000000E+00   0.00000000000000E+00
      2.90733580419929E-18  -2.03793087724362E-33   2.90733580419929E-18  -1.37044129179865E-17   3.95335029981391E-03
      3.95335021041938E-03   0.00000000000000E+00   0.00000000000000E+00   4.57353173280487E-10   1.33684822398017E-33
      4.57353173280487E-10   6.10392150982132E-18
      8.79670399292394E-02
      0.00000000000000E+00   9.69423525459611E-11   0.00000000000000E+00   0.00000000000000E+00  -5.00839746114074E-10
      7.11645350450093E-34  -5.00839746114074E-10   5.35948173106285E-18   0.00000000000000E+00   0.00000000000000E+00
      0.00000000000000E+00   0.00000000000000E+00   0.00000000000000E+00   0.00000000000000E+00   0.00000000000000E+00
      2.23460307444679E-18   0.00000000000000E+00   0.00000000000000E+00   0.00000000000000E+00   0.00000000000000E+00
      1.21132674169597E-17  -1.96191607415477E-33   1.21132674169597E-17  -1.37043023854420E-17   4.39835199646197E-03
      4.39835189856675E-03   0.00000000000000E+00   0.00000000000000E+00   5.00839734000806E-10   1.25027072370467E-33
      5.00839734000806E-10   6.11021757993233E-18
      9.77570772554967E-02
      0.00000000000000E+00   1.05871022272745E-10   0.00000000000000E+00   0.00000000000000E+00  -5.46961980790623E-10
      7.30345246685926E-34  -5.46961980790623E-10   5.35911039334826E-18   0.00000000000000E+00   0.00000000000000E+00
      0.00000000000000E+00   0.00000000000000E+00   0.00000000000000E+00   0.00000000000000E+00   0.00000000000000E+00
      2.22792772771054E-18   0.00000000000000E+00   0.00000000000000E+00   0.00000000000000E+00   0.00000000000000E+00
      3.39205453633421E-17  -1.96254467207480E-33   3.39205453633421E-17  -1.37041819962405E-17   4.88785386277484E-03
      4.88785375586355E-03   0.00000000000000E+00   0.00000000000000E+00   5.46961946870078E-10   1.23219942538887E-33
      5.46961946870078E-10   6.11714387518173E-18
      1.07757077255497E-01
      0.00000000000000E+00   1.14643268228579E-10   0.00000000000000E+00   0.00000000000000E+00  -5.92275009778209E-10
      7.17582722293617E-34  -5.92275009778209E-10   5.35873111226734E-18   0.00000000000000E+00   0.00000000000000E+00
      0.00000000000000E+00   0.00000000000000E+00   0.00000000000000E+00   0.00000000000000E+00   0.00000000000000E+00
      2.22110981881926E-18   0.00000000000000E+00   0.00000000000000E+00   0.00000000000000E+00   0.00000000000000E+00
      3.91942618206347E-17  -1.95072595198645E-33   3.91942618206347E-17  -1.37040603112402E-17   5.38785386277483E-03
      5.38785374700550E-03   0.00000000000000E+00   0.00000000000000E+00   5.92274970583946E-10   1.23314322969283E-33
      5.92274970583946E-10   6.12421938015364E-18
      1.17757077255497E-01
      0.00000000000000E+00   1.23074907507883E-10   0.00000000000000E+00   0.00000000000000E+00  -6.35827545926496E-10
      7.16651032464900E-34  -6.35827545926496E-10   5.35835185178914E-18   0.00000000000000E+00   0.00000000000000E+00
      0.00000000000000E+00   0.00000000000000E+00   0.00000000000000E+00   0.00000000000000E+00   0.00000000000000E+00
      2.21429251339190E-18   0.00000000000000E+00   0.00000000000000E+00   0.00000000000000E+00   0.00000000000000E+00
      2.67402190728619E-17  -1.93102579638564E-33   2.67402190728619E-17  -1.37039399175859E-17   5.88785386277483E-03
      5.88785373849146E-03   0.00000000000000E+00   0.00000000000000E+00   6.35827519186277E-10   1.21437476392074E-33
      6.35827519186277E-10   6.13129555240483E-18
      1.27757077255497E-01
      0.00000000000000E+00   1.31176953044401E-10   0.00000000000000E+00   0.00000000000000E+00  -6.77676630749581E-10
      7.50230707062734E-34  -6.77676630749581E-10   5.35797261174344E-18   0.00000000000000E+00   0.00000000000000E+00
      0.00000000000000E+00   0.00000000000000E+00   0.00000000000000E+00   0.00000000000000E+00   0.00000000000000E+00
      2.20747580739260E-18   0.00000000000000E+00   0.00000000000000E+00   0.00000000000000E+00   0.00000000000000E+00
      3.54036027574408E-17  -1.92706925832910E-33   3.54036027574408E-17  -1.37038208068093E-17   6.38785386277483E-03
      6.38785373031028E-03   0.00000000000000E+00   0.00000000000000E+00   6.77676595345978E-10   1.17683855126637E-33
      6.77676595345978E-10   6.13837238767328E-18
      1.37757077255497E-01
      0.00000000000000E+00   1.38960261260949E-10   0.00000000000000E+00   0.00000000000000E+00  -7.17878420299290E-10
      7.34281150402292E-34  -7.17878420299290E-10   5.35759339196123E-18   0.00000000000000E+00   0.00000000000000E+00
      0.00000000000000E+00   0.00000000000000E+00   0.00000000000000E+00   0.00000000000000E+00   0.00000000000000E+00
      2.20065969685095E-18   0.00000000000000E+00   0.00000000000000E+00   0.00000000000000E+00   0.00000000000000E+00
      2.81986455546331E-17  -1.92431865007767E-33   2.81986455546331E-17  -1.37037029705524E-17   6.88785386277483E-03
      6.88785372245102E-03   0.00000000000000E+00   0.00000000000000E+00   7.17878392100644E-10   1.19003749967537E-33
      7.17878392100644E-10   6.14544988174020E-18
      1.47757077255497E-01
      0.00000000000000E+00   1.46435504422269E-10   0.00000000000000E+00   0.00000000000000E+00  -7.56488279972327E-10
      7.54343857464109E-34  -7.56488279972327E-10   5.35721419227158E-18   0.00000000000000E+00   0.00000000000000E+00
      0.00000000000000E+00   0.00000000000000E+00   0.00000000000000E+00   0.00000000000000E+00   0.00000000000000E+00
      2.19384417778932E-18   0.00000000000000E+00   0.00000000000000E+00   0.00000000000000E+00   0.00000000000000E+00
      7.06206818541118E-18  -1.89255851091917E-33   7.06206818541118E-18  -1.37035864004566E-17   7.38785386277483E-03
      7.38785371490292E-03   0.00000000000000E+00   0.00000000000000E+00   7.56488272910259E-10   1.13821465345506E-33
      7.56488272910259E-10   6.15252803039571E-18
      1.57757077255497E-01
      0.00000000000000E+00   1.53613244204546E-10   0.00000000000000E+00   0.00000000000000E+00  -7.93560755452112E-10
      7.39552697209891E-34  -7.93560755452112E-10   5.35683501250531E-18   0.00000000000000E+00   0.00000000000000E+00
      0.00000000000000E+00   0.00000000000000E+00   0.00000000000000E+00   0.00000000000000E+00   0.00000000000000E+00
      2.18702924629310E-18   0.00000000000000E+00   0.00000000000000E+00   0.00000000000000E+00   0.00000000000000E+00
      2.71267829743036E-17  -1.84470314951578E-33   2.71267829743036E-17  -1.37034710882662E-17   7.88785386277484E-03
      7.88785370765523E-03   0.00000000000000E+00   0.00000000000000E+00   7.93560728325329E-10   1.10515045230589E-33
      7.93560728325329E-10   6.15960682946777E-18
      1.67757077255497E-01
      0.00000000000000E+00   1.60503697397603E-10   0.00000000000000E+00   0.00000000000000E+00  -8.29148837542653E-10
      7.08176162413398E-34  -8.29148837542653E-10   5.35645585249241E-18   0.00000000000000E+00   0.00000000000000E+00
      0.00000000000000E+00   0.00000000000000E+00   0.00000000000000E+00   0.00000000000000E+00   0.00000000000000E+00
      2.18021489846354E-18   0.00000000000000E+00   0.00000000000000E+00   0.00000000000000E+00   0.00000000000000E+00
      2.83027111168549E-17  -1.82592900972650E-33   2.83027111168549E-17  -1.37033570257643E-17   8.38785386277484E-03
      8.38785370069772E-03   0.00000000000000E+00   0.00000000000000E+00   8.29148809239942E-10   1.11775284731310E-33
      8.29148809239942E-10   6.16668627480837E-18
      1.77757077255497E-01
      0.00000000000000E+00   1.67116921937355E-10   0.00000000000000E+00   0.00000000000000E+00  -8.63304634147875E-10
      7.28396292184417E-34  -8.63304634147875E-10   5.35607671206381E-18   0.00000000000000E+00   0.00000000000000E+00
      0.00000000000000E+00   0.00000000000000E+00   0.00000000000000E+00   0.00000000000000E+00   0.00000000000000E+00
      2.17340113044253E-18   0.00000000000000E+00   0.00000000000000E+00   0.00000000000000E+00   0.00000000000000E+00
      3.27315361870910E-17  -1.82926321581968E-33   3.27315361870910E-17  -1.37032442048024E-17   8.88785386277484E-03
      8.88785369402017E-03   0.00000000000000E+00   0.00000000000000E+00   8.63304601416339E-10   1.10086692363527E-33
      8.63304601416339E-10   6.17376636229603E-18
      1.87757077255497E-01
      0.00000000000000E+00   1.73462743336301E-10   0.00000000000000E+00   0.00000000000000E+00  -8.96078911621208E-10
      7.39118418095402E-34  -8.96078911621208E-10   5.35569759105103E-18   0.00000000000000E+00   0.00000000000000E+00
      0.00000000000000E+00   0.00000000000000E+00   0.00000000000000E+00   0.00000000000000E+00   0.00000000000000E+00
      2.16658793840370E-18   0.00000000000000E+00   0.00000000000000E+00   0.00000000000000E+00   0.00000000000000E+00
      2.42879962569418E-17  -1.78839685480228E-33   2.42879962569418E-17  -1.37031326172934E-17   9.38785386277484E-03
      9.38785368761269E-03   0.00000000000000E+00   0.00000000000000E+00   8.96078887333213E-10   1.04927843670688E-33
      8.96078887333213E-10   6.18084708783860E-18
      1.97757077255497E-01
      0.00000000000000E+00   1.79550707823963E-10   0.00000000000000E+00   0.00000000000000E+00  -9.27521146174998E-10