DF-ISE text

Info {
  version   = 1.0
  type      = xyplot
  datasets  = [
    "time"
    "source OuterVoltage" "source InnerVoltage" "source QuasiFermiPotential" "source DisplacementCurrent" "source eCurrent"
    "source hCurrent" "source TotalCurrent" "source Charge" "gate OuterVoltage" "gate InnerVoltage"
    "gate QuasiFermiPotential" "gate DisplacementCurrent" "gate eCurrent" "gate hCurrent" "gate TotalCurrent"
    "gate Charge" "substrate OuterVoltage" "substrate InnerVoltage" "substrate QuasiFermiPotential" "substrate DisplacementCurrent"
    "substrate eCurrent" "substrate hCurrent" "substrate TotalCurrent" "substrate Charge" "drain OuterVoltage"
    "drain InnerVoltage" "drain QuasiFermiPotential" "drain DisplacementCurrent" "drain eCurrent" "drain hCurrent"
    "drain TotalCurrent" "drain Charge" ]
  functions = [
    Time
    OuterVoltage InnerVoltage QuasiFermiPotential DisplacementCurrent eCurrent
    hCurrent TotalCurrent Charge OuterVoltage InnerVoltage
    QuasiFermiPotential DisplacementCurrent eCurrent hCurrent TotalCurrent
    Charge OuterVoltage InnerVoltage QuasiFermiPotential DisplacementCurrent
    eCurrent hCurrent TotalCurrent Charge OuterVoltage
    InnerVoltage QuasiFermiPotential DisplacementCurrent eCurrent hCurrent
    TotalCurrent Charge ]
}

Data {
      0.00000000000000E+00
      0.00000000000000E+00   0.00000000000000E+00   0.00000000000000E+00   0.00000000000000E+00   2.28036661234602E-22
     -2.59377058786706E-34   2.28036661234343E-22   6.88536525021543E-18   0.00000000000000E+00   0.00000000000000E+00
      0.00000000000000E+00   0.00000000000000E+00   0.00000000000000E+00   0.00000000000000E+00   0.00000000000000E+00
      3.75976068976838E-18   0.00000000000000E+00   0.00000000000000E+00   0.00000000000000E+00   0.00000000000000E+00
     -1.36809708624166E-21   5.77979488269194E-34  -1.36809708624108E-21  -1.61745570951624E-17   0.00000000000000E+00
      0.00000000000000E+00   0.00000000000000E+00   0.00000000000000E+00   1.14006042500706E-21  -3.18602429482488E-34
      1.14006042500674E-21   5.52943115517855E-18
      0.00000000000000E+00
      0.00000000000000E+00   0.00000000000000E+00   0.00000000000000E+00   0.00000000000000E+00  -3.46504821505491E-18
     -2.45507098165222E-34  -3.46504821505491E-18   6.88044316254529E-18   0.00000000000000E+00   0.00000000000000E+00
      0.00000000000000E+00   0.00000000000000E+00   0.00000000000000E+00   0.00000000000000E+00   0.00000000000000E+00
      3.75043808650861E-18   0.00000000000000E+00   0.00000000000000E+00   0.00000000000000E+00   0.00000000000000E+00
      3.78866233442858E-18   5.46073217295160E-34   3.78866233442858E-18  -1.61562052432006E-17   0.00000000000000E+00
     -4.31195949331112E-19   0.00000000000000E+00   0.00000000000000E+00  -3.23614119373674E-19  -3.00566119129938E-34
     -3.23614119373674E-19   5.52532399414665E-18
      1.00000000000000E-03
      0.00000000000000E+00   9.36233515071657E-12   0.00000000000000E+00   0.00000000000000E+00  -5.91817889083433E-11
     -2.35994701609167E-34  -5.91817889083433E-11   6.88015867678734E-18   0.00000000000000E+00   0.00000000000000E+00
      0.00000000000000E+00   0.00000000000000E+00   0.00000000000000E+00   0.00000000000000E+00   0.00000000000000E+00
      3.74494214643008E-18   0.00000000000000E+00   0.00000000000000E+00   0.00000000000000E+00   0.00000000000000E+00
     -6.51868867016737E-19   5.54015972160101E-34  -6.51868867016736E-19  -1.61560953786594E-17   4.30000000000000E-04
      4.29999990629972E-04   0.00000000000000E+00   0.00000000000000E+00   5.91817895602122E-11  -3.18021270550934E-34
      5.91817895602122E-11   5.53099455544193E-18
      2.08666666666667E-03
      0.00000000000000E+00   1.92470085697703E-11   0.00000000000000E+00   0.00000000000000E+00  -1.21664046709084E-10
     -2.55593624008210E-34  -1.21664046709084E-10   6.87984955371144E-18   0.00000000000000E+00   0.00000000000000E+00
      0.00000000000000E+00   0.00000000000000E+00   0.00000000000000E+00   0.00000000000000E+00   0.00000000000000E+00
      3.73897056053346E-18   0.00000000000000E+00   0.00000000000000E+00   0.00000000000000E+00   0.00000000000000E+00
      4.68569828617199E-17   5.40993162872092E-34   4.68569828617199E-17  -1.61559777027175E-17   8.97266666666667E-04
      8.97266647403966E-04   0.00000000000000E+00   0.00000000000000E+00   1.21663999852101E-10  -2.85399538863881E-34
      1.21663999852101E-10   5.53715758847254E-18
      3.28200000000000E-03
      0.00000000000000E+00   2.97672156617999E-11   0.00000000000000E+00   0.00000000000000E+00  -1.88161825615506E-10
     -2.39894411716379E-34  -1.88161825615506E-10   6.87950954005465E-18   0.00000000000000E+00   0.00000000000000E+00
      0.00000000000000E+00   0.00000000000000E+00   0.00000000000000E+00   0.00000000000000E+00   0.00000000000000E+00
      3.73240261451060E-18   0.00000000000000E+00   0.00000000000000E+00   0.00000000000000E+00   0.00000000000000E+00
      7.97098143601737E-17   4.97341913949003E-34   7.97098143601737E-17  -1.61558503039267E-17   1.41126000000000E-03
      1.41125997020866E-03   0.00000000000000E+00   0.00000000000000E+00   1.88161745905691E-10  -2.57447502232624E-34
      1.88161745905691E-10   5.54393814936142E-18
      4.59686666666667E-03
      0.00000000000000E+00   4.09156174717477E-11   0.00000000000000E+00   0.00000000000000E+00  -2.58627975398393E-10
     -2.35807736114306E-34  -2.58627975398393E-10   6.87913555116050E-18   0.00000000000000E+00   0.00000000000000E+00
      0.00000000000000E+00   0.00000000000000E+00   0.00000000000000E+00   0.00000000000000E+00   0.00000000000000E+00
      3.72517883175747E-18   0.00000000000000E+00   0.00000000000000E+00   0.00000000000000E+00   0.00000000000000E+00
      8.66407647573792E-17   5.33884181564976E-34   8.66407647573792E-17  -1.61557126229322E-17   1.97665266666667E-03
      1.97665262571810E-03   0.00000000000000E+00   0.00000000000000E+00   2.58627888757629E-10  -2.98076445450670E-34
      2.58627888757629E-10   5.55139824001439E-18
      6.04322000000000E-03
      0.00000000000000E+00   5.26753589811503E-11   0.00000000000000E+00   0.00000000000000E+00  -3.32955296529986E-10
     -2.60048990979931E-34  -3.32955296529986E-10   6.87872419473949E-18   0.00000000000000E+00   0.00000000000000E+00
      0.00000000000000E+00   0.00000000000000E+00   0.00000000000000E+00   0.00000000000000E+00   0.00000000000000E+00
      3.71723381887608E-18   0.00000000000000E+00   0.00000000000000E+00   0.00000000000000E+00   0.00000000000000E+00
      1.54112479514783E-16   5.27414187546057E-34   1.54112479514783E-16  -1.61555641259339E-17   2.59858460000000E-03
      2.59858454728251E-03   0.00000000000000E+00   0.00000000000000E+00   3.32955142417506E-10  -2.67365196566126E-34
      3.32955142417506E-10   5.55960611231833E-18
      7.63420866666667E-03
      0.00000000000000E+00   6.50177859255868E-11   0.00000000000000E+00   0.00000000000000E+00  -4.10961954515852E-10
     -2.55081426261781E-34  -4.10961954515852E-10   6.87827174026175E-18   0.00000000000000E+00   0.00000000000000E+00
      0.00000000000000E+00   0.00000000000000E+00   0.00000000000000E+00   0.00000000000000E+00   0.00000000000000E+00
      3.70849567967898E-18   0.00000000000000E+00   0.00000000000000E+00   0.00000000000000E+00   0.00000000000000E+00
      2.30873155961276E-16   5.22380249381071E-34   2.30873155961276E-16  -1.61554043227238E-17   3.28270972666667E-03
      3.28270966159725E-03   0.00000000000000E+00   0.00000000000000E+00   4.10961723642696E-10  -2.67298823119290E-34
      4.10961723642696E-10   5.56863690278294E-18
      9.38429620000000E-03
      0.00000000000000E+00   7.79002642367631E-11   0.00000000000000E+00   0.00000000000000E+00  -4.92378737601827E-10
     -2.39928204190869E-34  -4.92378737601827E-10   6.87777408530833E-18   0.00000000000000E+00   0.00000000000000E+00
      0.00000000000000E+00   0.00000000000000E+00   0.00000000000000E+00   0.00000000000000E+00   0.00000000000000E+00
      3.69888537151783E-18   0.00000000000000E+00   0.00000000000000E+00   0.00000000000000E+00   0.00000000000000E+00
      2.95053141916858E-16   5.02188822522502E-34   2.95053141916858E-16  -1.61552327892384E-17   4.03524736600000E-03
      4.03524728803810E-03   0.00000000000000E+00   0.00000000000000E+00   4.92378442548685E-10  -2.62260618331633E-34
      4.92378442548685E-10   5.57857333241228E-18
      1.13093924866667E-02
      0.00000000000000E+00   9.12649851985361E-11   0.00000000000000E+00   0.00000000000000E+00  -5.76837800569242E-10
     -2.46314666199686E-34  -5.76837800569242E-10   6.87722671858463E-18   0.00000000000000E+00   0.00000000000000E+00
      0.00000000000000E+00   0.00000000000000E+00   0.00000000000000E+00   0.00000000000000E+00   0.00000000000000E+00
      3.68831599823533E-18   0.00000000000000E+00   0.00000000000000E+00   0.00000000000000E+00   0.00000000000000E+00
      4.19499364004554E-16   5.02596644605462E-34   4.19499364004554E-16  -1.61550491954193E-17   4.86303876926667E-03
      4.86303867793005E-03   0.00000000000000E+00   0.00000000000000E+00   5.76837381069878E-10  -2.56281978405776E-34
      5.76837381069878E-10   5.58950647859930E-18
      1.34269984020000E-02
      0.00000000000000E+00   1.05036517978706E-10   0.00000000000000E+00   0.00000000000000E+00  -6.63862694719427E-10
     -2.31265467930692E-34  -6.63862694719427E-10   6.87662467925752E-18   0.00000000000000E+00   0.00000000000000E+00
      0.00000000000000E+00   0.00000000000000E+00   0.00000000000000E+00   0.00000000000000E+00   0.00000000000000E+00
      3.67669203367102E-18   0.00000000000000E+00   0.00000000000000E+00   0.00000000000000E+00   0.00000000000000E+00
      6.42868567141503E-16   4.83272857503010E-34   6.42868567141503E-16  -1.61548533395745E-17   5.77360931286000E-03
      5.77360920774172E-03   0.00000000000000E+00   0.00000000000000E+00   6.63862051850860E-10  -2.52007389572317E-34
      6.63862051850860E-10   5.60153662664590E-18
      1.57563649088667E-02
      0.00000000000000E+00   1.19121207248273E-10   0.00000000000000E+00   0.00000000000000E+00  -7.52861088790937E-10
     -2.42536381657596E-34  -7.52861088790937E-10   6.87596251226374E-18   0.00000000000000E+00   0.00000000000000E+00
      0.00000000000000E+00   0.00000000000000E+00   0.00000000000000E+00   0.00000000000000E+00   0.00000000000000E+00
      3.66390846883763E-18   0.00000000000000E+00   0.00000000000000E+00   0.00000000000000E+00   0.00000000000000E+00
      9.48860828749060E-16   4.81593938779462E-34   9.48860828749060E-16  -1.61546451902880E-17   6.77523691081267E-03
      6.77523679159953E-03   0.00000000000000E+00   0.00000000000000E+00   7.52860139930108E-10  -2.39057557121867E-34
      7.52860139930108E-10   5.61477420918656E-18
      1.83186680664200E-02
      0.00000000000000E+00   1.33406612195510E-10   0.00000000000000E+00   0.00000000000000E+00  -8.43119847506831E-10
     -2.71568027340323E-34  -8.43119847506831E-10   6.87523421917450E-18   0.00000000000000E+00   0.00000000000000E+00
      0.00000000000000E+00   0.00000000000000E+00   0.00000000000000E+00   0.00000000000000E+00   0.00000000000000E+00
      3.64984987518142E-18   0.00000000000000E+00   0.00000000000000E+00   0.00000000000000E+00   0.00000000000000E+00
      9.22465067320375E-21   4.82058958362139E-34   9.22465067320423E-21  -1.61544249370895E-17   7.87702726856060E-03
      7.87702713505251E-03   0.00000000000000E+00   0.00000000000000E+00   8.43119847497606E-10  -2.10490931021817E-34
      8.43119847497606E-10   5.62934084273351E-18
      2.11201195186783E-02
      0.00000000000000E+00   1.47678159367328E-10   0.00000000000000E+00   0.00000000000000E+00  -9.33287735706802E-10
     -2.44346209030085E-34  -9.33287735706802E-10   6.87443805848164E-18   0.00000000000000E+00   0.00000000000000E+00
      0.00000000000000E+00   0.00000000000000E+00   0.00000000000000E+00   0.00000000000000E+00   0.00000000000000E+00
      3.63448306346779E-18   0.00000000000000E+00   0.00000000000000E+00   0.00000000000000E+00   0.00000000000000E+00
      1.65963736101296E-19   4.67701595697372E-34   1.65963736101297E-19  -1.61541944243403E-17   9.08165139303168E-03
      9.08165124524220E-03   0.00000000000000E+00   0.00000000000000E+00   9.33287735540838E-10  -2.23355386667287E-34
      9.33287735540838E-10   5.64527330239085E-18
      2.41830397731474E-02
      0.00000000000000E+00   1.61797900124420E-10   0.00000000000000E+00   0.00000000000000E+00  -1.02249173901733E-09
     -2.54895360654392E-34  -1.02249173901733E-09   6.87356771380133E-18   0.00000000000000E+00   0.00000000000000E+00
      0.00000000000000E+00   0.00000000000000E+00   0.00000000000000E+00   0.00000000000000E+00   0.00000000000000E+00
      3.61768660601828E-18   0.00000000000000E+00   0.00000000000000E+00   0.00000000000000E+00   0.00000000000000E+00
     -1.20569657650583E-19   4.67653977807588E-34  -1.20569657650582E-19  -1.61539545183654E-17   1.03987071024534E-02
      1.03987069405346E-02   0.00000000000000E+00   0.00000000000000E+00   1.02249173913790E-09  -2.12758617153197E-34
      1.02249173913790E-09   5.66270019854578E-18
      2.75318325847003E-02
      0.00000000000000E+00   1.75617258572114E-10   0.00000000000000E+00   0.00000000000000E+00  -1.10979445188488E-09
     -2.43380618749924E-34  -1.10979445188488E-09   6.87261628187611E-18   0.00000000000000E+00   0.00000000000000E+00
      0.00000000000000E+00   0.00000000000000E+00   0.00000000000000E+00   0.00000000000000E+00   0.00000000000000E+00
      3.59932784717865E-18   0.00000000000000E+00   0.00000000000000E+00   0.00000000000000E+00   0.00000000000000E+00
      3.85264807998363E-19   4.45936784053079E-34   3.85264807998364E-19  -1.61537064690391E-17   1.18386880114211E-02
      1.18386878356738E-02   0.00000000000000E+00   0.00000000000000E+00   1.10979445149962E-09  -2.02556165303155E-34
      1.10979445149962E-09   5.68176233998429E-18
      3.11931793919981E-02
      0.00000000000000E+00   1.88981088683056E-10   0.00000000000000E+00   0.00000000000000E+00  -1.19421781716237E-09
     -2.39168670393999E-34  -1.19421781716237E-09   6.87157621809347E-18   0.00000000000000E+00   0.00000000000000E+00
      0.00000000000000E+00   0.00000000000000E+00   0.00000000000000E+00   0.00000000000000E+00   0.00000000000000E+00
      3.57926186891522E-18   0.00000000000000E+00   0.00000000000000E+00   0.00000000000000E+00   0.00000000000000E+00
     -7.58832301820952E-20   4.14408658575716E-34  -7.58832301820948E-20  -1.61534519900193E-17   1.34130671385592E-02
      1.34130669494394E-02   0.00000000000000E+00   0.00000000000000E+00   1.19421781723825E-09  -1.75239988181716E-34
      1.19421781723825E-09   5.70261390301057E-18
      3.51962519013104E-02
      0.00000000000000E+00   2.01732974126625E-10   0.00000000000000E+00   0.00000000000000E+00  -1.27477647617287E-09
     -2.57060364762758E-34  -1.27477647617287E-09   6.87043927692146E-18   0.00000000000000E+00   0.00000000000000E+00
      0.00000000000000E+00   0.00000000000000E+00   0.00000000000000E+00   0.00000000000000E+00   0.00000000000000E+00
      3.55733036083335E-18   0.00000000000000E+00   0.00000000000000E+00   0.00000000000000E+00   0.00000000000000E+00
     -4.95921252720790E-19   4.45026011370640E-34  -4.95921252720790E-19  -1.61531933514834E-17   1.51343883175635E-02
      1.51343881156836E-02   0.00000000000000E+00   0.00000000000000E+00   1.27477647666879E-09  -1.87965646607882E-34
      1.27477647666879E-09   5.72542371372850E-18
      3.95729445114918E-02
      0.00000000000000E+00   2.13722008394044E-10   0.00000000000000E+00   0.00000000000000E+00  -1.35052118133422E-09
     -2.46620564055348E-34  -1.35052118133422E-09   6.86919644675991E-18   0.00000000000000E+00   0.00000000000000E+00
      0.00000000000000E+00   0.00000000000000E+00   0.00000000000000E+00   0.00000000000000E+00   0.00000000000000E+00
      3.53336038465557E-18   0.00000000000000E+00   0.00000000000000E+00   0.00000000000000E+00   0.00000000000000E+00
     -5.36440576912794E-19   4.04070932636048E-34  -5.36440576912794E-19  -1.61529334854243E-17   1.70163661399415E-02
      1.70163659260650E-02   0.00000000000000E+00   0.00000000000000E+00   1.35052118187066E-09  -1.57450368580700E-34
      1.35052118187066E-09   5.75037665400885E-18
      4.43581284319568E-02
      0.00000000000000E+00   2.24810906456572E-10   0.00000000000000E+00   0.00000000000000E+00  -1.42058990051961E-09
     -2.49758533327050E-34  -1.42058990051961E-09   6.86783787870470E-18   0.00000000000000E+00   0.00000000000000E+00
      0.00000000000000E+00   0.00000000000000E+00   0.00000000000000E+00   0.00000000000000E+00   0.00000000000000E+00
      3.50716302444198E-18   0.00000000000000E+00   0.00000000000000E+00   0.00000000000000E+00   0.00000000000000E+00
     -2.05302170328730E-19   3.96469180861362E-34  -2.05302170328729E-19  -1.61526761066192E-17   1.90739952257414E-02
      1.90739950007691E-02   0.00000000000000E+00   0.00000000000000E+00   1.42058990072492E-09  -1.46710647534312E-34
      1.42058990072492E-09   5.77767520347257E-18
      4.95899295183319E-02
      0.00000000000000E+00   2.34885439332880E-10   0.00000000000000E+00   0.00000000000000E+00  -1.48426752598446E-09
     -2.40700339158238E-34  -1.48426752598446E-09   6.86635280859113E-18   0.00000000000000E+00   0.00000000000000E+00
      0.00000000000000E+00   0.00000000000000E+00   0.00000000000000E+00   0.00000000000000E+00   0.00000000000000E+00
      3.47853190997102E-18   0.00000000000000E+00   0.00000000000000E+00   0.00000000000000E+00   0.00000000000000E+00
     -1.06902254834992E-19   3.85000216546832E-34  -1.06902254834992E-19  -1.61524258481809E-17   2.13236696928827E-02
      2.13236694578296E-02   0.00000000000000E+00   0.00000000000000E+00   1.48426752609136E-09  -1.44299877388593E-34
      1.48426752609136E-09   5.80754112961870E-18
      5.53100320394353E-02
      0.00000000000000E+00   2.43865308419695E-10   0.00000000000000E+00   0.00000000000000E+00  -1.54105450193963E-09
     -2.35252089586222E-34  -1.54105450193963E-09   6.86472947168543E-18   0.00000000000000E+00   0.00000000000000E+00
      0.00000000000000E+00   0.00000000000000E+00   0.00000000000000E+00   0.00000000000000E+00   0.00000000000000E+00
      3.44724159898622E-18   0.00000000000000E+00   0.00000000000000E+00   0.00000000000000E+00   0.00000000000000E+00
     -4.15398790276499E-19   3.58455761177703E-34  -4.15398790276499E-19  -1.61521884106635E-17   2.37833137769572E-02
      2.37833135329186E-02   0.00000000000000E+00   0.00000000000000E+00   1.54105450235503E-09  -1.23203671591481E-34
      1.54105450235503E-09   5.84021733999191E-18
      6.15640107958417E-02
      0.00000000000000E+00   2.51714300156410E-10   0.00000000000000E+00   0.00000000000000E+00  -1.59073105324155E-09
     -2.51983644446527E-34  -1.59073105324155E-09   6.86295500936390E-18   0.00000000000000E+00   0.00000000000000E+00
      0.00000000000000E+00   0.00000000000000E+00   0.00000000000000E+00   0.00000000000000E+00   0.00000000000000E+00
      3.41304581009418E-18   0.00000000000000E+00   0.00000000000000E+00   0.00000000000000E+00   0.00000000000000E+00
     -2.90418545381906E-19   3.74371080720881E-34  -2.90418545381906E-19  -1.61519707318358E-17   2.64725246422119E-02
      2.64725243903196E-02   0.00000000000000E+00   0.00000000000000E+00   1.59073105353197E-09  -1.22387436274354E-34
      1.59073105353197E-09   5.87596991237785E-18
      6.84016942361794E-02
      0.00000000000000E+00   2.58450432065766E-10   0.00000000000000E+00   0.00000000000000E+00  -1.63342105616756E-09
     -2.60598708253317E-34  -1.63342105616756E-09   6.86101536694152E-18   0.00000000000000E+00   0.00000000000000E+00
      0.00000000000000E+00   0.00000000000000E+00   0.00000000000000E+00   0.00000000000000E+00   0.00000000000000E+00
      3.37567548401485E-18   0.00000000000000E+00   0.00000000000000E+00   0.00000000000000E+00   0.00000000000000E+00
     -2.00644588830982E-18   3.65227917882835E-34  -2.00644588830982E-18  -1.61517811687228E-17   2.94127285215572E-02
      2.94127282629249E-02   0.00000000000000E+00   0.00000000000000E+00   1.63342105817400E-09  -1.04629209629518E-34
      1.63342105817400E-09   5.91509031776643E-18
      7.58775614642820E-02
      0.00000000000000E+00   2.64153372342558E-10   0.00000000000000E+00   0.00000000000000E+00  -1.66963837433379E-09
     -2.56725488578684E-34  -1.66963837433379E-09   6.85889518186236E-18   0.00000000000000E+00   0.00000000000000E+00
      0.00000000000000E+00   0.00000000000000E+00   0.00000000000000E+00   0.00000000000000E+00   0.00000000000000E+00
      3.33483665952229E-18   0.00000000000000E+00   0.00000000000000E+00   0.00000000000000E+00   0.00000000000000E+00
     -1.50732742379428E-18   3.56472238461546E-34  -1.50732742379428E-18  -1.61516296954549E-17   3.26273514296412E-02
      3.26273511653035E-02   0.00000000000000E+00   0.00000000000000E+00   1.66963837584112E-09  -9.97467498828625E-35
      1.66963837584112E-09   5.95789785407018E-18
      8.40511763003407E-02
      0.00000000000000E+00   2.68966965799503E-10   0.00000000000000E+00   0.00000000000000E+00  -1.70030204898747E-09
     -2.26404037761395E-34  -1.70030204898747E-09   6.85657766137476E-18   0.00000000000000E+00   0.00000000000000E+00
      0.00000000000000E+00   0.00000000000000E+00   0.00000000000000E+00   0.00000000000000E+00   0.00000000000000E+00
      3.29020814220683E-18   0.00000000000000E+00   0.00000000000000E+00   0.00000000000000E+00   0.00000000000000E+00
     -2.88051378977557E-18   3.10329054038055E-34  -2.88051378977557E-18  -1.61515281118217E-17   3.61420058091465E-02
      3.61420055399941E-02   0.00000000000000E+00   0.00000000000000E+00   1.70030205186798E-09  -8.39250162766598E-35
      1.70030205186798E-09   6.00474230824014E-18
      9.29876618544316E-02
      0.00000000000000E+00   2.73093280344769E-10   0.00000000000000E+00   0.00000000000000E+00  -1.72669796514172E-09
     -2.32837301906624E-34  -1.72669796514172E-09   6.85404444883506E-18   0.00000000000000E+00   0.00000000000000E+00
      0.00000000000000E+00   0.00000000000000E+00   0.00000000000000E+00   0.00000000000000E+00   0.00000000000000E+00
      3.24143895066239E-18   0.00000000000000E+00   0.00000000000000E+00   0.00000000000000E+00   0.00000000000000E+00
     -1.38271846777224E-17   3.05030661101859E-34  -1.38271846777224E-17  -1.61514902674027E-17   3.99846945974056E-02
      3.99846943241279E-02   0.00000000000000E+00   0.00000000000000E+00   1.72669797896891E-09  -7.21933591952346E-35
      1.72669797896891E-09   6.05600686790527E-18
      1.02758219393571E-01
      0.00000000000000E+00   2.76777332296664E-10   0.00000000000000E+00   0.00000000000000E+00  -1.75038032527400E-09
     -2.40085678666983E-34  -1.75038032527400E-09   6.85127547767880E-18   0.00000000000000E+00   0.00000000000000E+00
      0.00000000000000E+00   0.00000000000000E+00   0.00000000000000E+00   0.00000000000000E+00   0.00000000000000E+00
      3.18814551477770E-18   0.00000000000000E+00   0.00000000000000E+00   0.00000000000000E+00   0.00000000000000E+00
     -1.76435086537286E-17   3.01297912953488E-34  -1.76435086537286E-17  -1.61515322950087E-17   4.41860343392356E-02
      4.41860340622777E-02   0.00000000000000E+00   0.00000000000000E+00   1.75038034291751E-09  -6.12122342865050E-35
      1.75038034291751E-09   6.11211130255225E-18
      1.12758219393571E-01
      0.00000000000000E+00   2.80068344397588E-10   0.00000000000000E+00   0.00000000000000E+00  -1.77163225140886E-09
     -2.49989497232868E-34  -1.77163225140886E-09   6.84844215610320E-18   0.00000000000000E+00   0.00000000000000E+00
      0.00000000000000E+00   0.00000000000000E+00   0.00000000000000E+00   0.00000000000000E+00   0.00000000000000E+00
      3.13362830997901E-18   0.00000000000000E+00   0.00000000000000E+00   0.00000000000000E+00   0.00000000000000E+00
     -1.99506141663849E-17   3.02775851387856E-34  -1.99506141663849E-17  -1.61516610273220E-17   4.84860343392356E-02
      4.84860340589936E-02   0.00000000000000E+00   0.00000000000000E+00   1.77163227135948E-09  -5.27863541549883E-35
      1.77163227135948E-09   6.16959056123977E-18
      1.22758219393571E-01
      0.00000000000000E+00   2.83146459535274E-10   0.00000000000000E+00   0.00000000000000E+00  -1.79157308409090E-09
     -2.31545558701888E-34  -1.79157308409090E-09   6.84560946424684E-18   0.00000000000000E+00   0.00000000000000E+00
      0.00000000000000E+00   0.00000000000000E+00   0.00000000000000E+00   0.00000000000000E+00   0.00000000000000E+00
      3.07913714507307E-18   0.00000000000000E+00   0.00000000000000E+00   0.00000000000000E+00   0.00000000000000E+00
     -1.77994439417486E-17   2.78517945395445E-34  -1.77994439417486E-17  -1.61518720436002E-17   5.27860343392356E-02
      5.27860340559254E-02   0.00000000000000E+00   0.00000000000000E+00   1.79157310189035E-09  -4.69723866935570E-35
      1.79157310189035E-09   6.22712543428022E-18
      1.32758219393571E-01
      0.00000000000000E+00   2.86162366033349E-10   0.00000000000000E+00   0.00000000000000E+00  -1.81114612797798E-09
     -2.60741878333064E-34  -1.81114612797798E-09   6.84277735756086E-18   0.00000000000000E+00   0.00000000000000E+00
      0.00000000000000E+00   0.00000000000000E+00   0.00000000000000E+00   0.00000000000000E+00   0.00000000000000E+00
      3.02467018001126E-18   0.00000000000000E+00   0.00000000000000E+00   0.00000000000000E+00   0.00000000000000E+00
     -1.38639541162778E-17   3.00471425284302E-34  -1.38639541162778E-17  -1.61521611816171E-17   5.70860343392356E-02
      5.70860340529221E-02   0.00000000000000E+00   0.00000000000000E+00   1.81114614184193E-09  -3.97295469512380E-35
      1.81114614184193E-09   6.28471364404498E-18
      1.42758219393571E-01
      0.00000000000000E+00   2.89183397295282E-10   0.00000000000000E+00   0.00000000000000E+00  -1.83076894110462E-09
     -2.33886403476872E-34  -1.83076894110462E-09   6.83994579785429E-18   0.00000000000000E+00   0.00000000000000E+00
      0.00000000000000E+00   0.00000000000000E+00   0.00000000000000E+00   0.00000000000000E+00   0.00000000000000E+00
      2.97022575030627E-18   0.00000000000000E+00   0.00000000000000E+00   0.00000000000000E+00   0.00000000000000E+00
     -8.54802465853265E-18   2.68325957518167E-34  -8.54802465853265E-18  -1.61525245695585E-17   6.13860343392356E-02
      6.13860340499163E-02   0.00000000000000E+00   0.00000000000000E+00   1.83076894965264E-09  -3.44395540412947E-35
      1.83076894965264E-09   6.34235302139786E-18
      1.52758219393571E-01
      0.00000000000000E+00   2.92232278209995E-10   0.00000000000000E+00   0.00000000000000E+00  -1.85058024648189E-09
     -2.47352064896384E-34  -1.85058024648189E-09   6.83711475154496E-18   0.00000000000000E+00   0.00000000000000E+00
      0.00000000000000E+00   0.00000000000000E+00   0.00000000000000E+00   0.00000000000000E+00   0.00000000000000E+00
      2.91580234899925E-18   0.00000000000000E+00   0.00000000000000E+00   0.00000000000000E+00   0.00000000000000E+00
     -1.18098384956824E-17   2.79425837630062E-34  -1.18098384956824E-17  -1.61529586014541E-17   6.56860343392356E-02
      6.56860340468857E-02   0.00000000000000E+00   0.00000000000000E+00   1.85058025829172E-09  -3.20737727336784E-35
      1.85058025829172E-09   6.40004150090983E-18
      1.62758219393571E-01
      0.00000000000000E+00   2.95314866574459E-10   0.00000000000000E+00   0.00000000000000E+00  -1.87061533325295E-09
     -2.56233647600351E-34  -1.87061533325295E-09   6.83428418829424E-18   0.00000000000000E+00   0.00000000000000E+00
      0.00000000000000E+00   0.00000000000000E+00   0.00000000000000E+00   0.00000000000000E+00   0.00000000000000E+00
      2.86139859118974E-18   0.00000000000000E+00   0.00000000000000E+00   0.00000000000000E+00   0.00000000000000E+00
     -1.06721757845123E-17   2.80032892241901E-34  -1.06721757845123E-17  -1.61534598917854E-17   6.99860343392356E-02
      6.99860340438237E-02   0.00000000000000E+00   0.00000000000000E+00   1.87061534392512E-09  -2.37992446415499E-35
      1.87061534392512E-09   6.45777711230137E-18
      1.72758219393571E-01
      0.00000000000000E+00   2.98431653952056E-10   0.00000000000000E+00   0.00000000000000E+00  -1.89087734662202E-09
     -2.59814137569667E-34  -1.89087734662202E-09   6.83145408089559E-18   0.00000000000000E+00   0.00000000000000E+00
      0.00000000000000E+00   0.00000000000000E+00   0.00000000000000E+00   0.00000000000000E+00   0.00000000000000E+00
      2.80701322306606E-18   0.00000000000000E+00   0.00000000000000E+00   0.00000000000000E+00   0.00000000000000E+00
     -3.49820107380548E-18   2.80978099502536E-34  -3.49820107380548E-18  -1.61540252843396E-17   7.42860343392356E-02
      7.42860340407295E-02   0.00000000000000E+00   0.00000000000000E+00   1.89087735012022E-09  -2.11639619328692E-35
      1.89087735012022E-09   6.51555798037801E-18
      1.82758219393571E-01
      0.00000000000000E+00   3.01579470190167E-10   0.00000000000000E+00   0.00000000000000E+00  -1.91134610310983E-09
     -2.25917244296153E-34  -1.91134610310983E-09   6.82862440543081E-18   0.00000000000000E+00   0.00000000000000E+00
      0.00000000000000E+00   0.00000000000000E+00   0.00000000000000E+00   0.00000000000000E+00   0.00000000000000E+00
      2.75264511352780E-18   0.00000000000000E+00   0.00000000000000E+00   0.00000000000000E+00   0.00000000000000E+00
     -2.72599400732359E-18   2.45055434479651E-34  -2.72599400732359E-18  -1.61546518395165E-17   7.85860343392356E-02
      7.85860340376047E-02   0.00000000000000E+00   0.00000000000000E+00   1.91134610583582E-09  -1.91381901834976E-35
      1.91134610583582E-09   6.57338232055793E-18
      1.92758219393571E-01
      0.00000000000000E+00   3.04752363491103E-10   0.00000000000000E+00   0.00000000000000E+00  -1.93198387133354E-09