DF-ISE text

Info {
  version   = 1.0
  type      = xyplot
  datasets  = [
    "time"
    "source OuterVoltage" "source InnerVoltage" "source QuasiFermiPotential" "source DisplacementCurrent" "source eCurrent"
    "source hCurrent" "source TotalCurrent" "source Charge" "gate OuterVoltage" "gate InnerVoltage"
    "gate QuasiFermiPotential" "gate DisplacementCurrent" "gate eCurrent" "gate hCurrent" "gate TotalCurrent"
    "gate Charge" "substrate OuterVoltage" "substrate InnerVoltage" "substrate QuasiFermiPotential" "substrate DisplacementCurrent"
    "substrate eCurrent" "substrate hCurrent" "substrate TotalCurrent" "substrate Charge" "drain OuterVoltage"
    "drain InnerVoltage" "drain QuasiFermiPotential" "drain DisplacementCurrent" "drain eCurrent" "drain hCurrent"
    "drain TotalCurrent" "drain Charge" ]
  functions = [
    Time
    OuterVoltage InnerVoltage QuasiFermiPotential DisplacementCurrent eCurrent
    hCurrent TotalCurrent Charge OuterVoltage InnerVoltage
    QuasiFermiPotential DisplacementCurrent eCurrent hCurrent TotalCurrent
    Charge OuterVoltage InnerVoltage QuasiFermiPotential DisplacementCurrent
    eCurrent hCurrent TotalCurrent Charge OuterVoltage
    InnerVoltage QuasiFermiPotential DisplacementCurrent eCurrent hCurrent
    TotalCurrent Charge ]
}

Data {
      0.00000000000000E+00
      0.00000000000000E+00   0.00000000000000E+00   0.00000000000000E+00   0.00000000000000E+00   2.63580454636710E-21
      5.20864006496761E-34   2.63580454636762E-21   5.66599724954791E-18   0.00000000000000E+00   0.00000000000000E+00
      0.00000000000000E+00   0.00000000000000E+00   0.00000000000000E+00   0.00000000000000E+00   0.00000000000000E+00
      2.22249876026762E-18   0.00000000000000E+00   0.00000000000000E+00   0.00000000000000E+00   0.00000000000000E+00
     -3.19291704388151E-19  -1.28384170190446E-33  -3.19291704388152E-19  -1.41547624603550E-17   0.00000000000000E+00
      0.00000000000000E+00   0.00000000000000E+00   0.00000000000000E+00   3.16655899841784E-19   7.62977695407702E-34
      3.16655899841785E-19   6.26626645053947E-18
      0.00000000000000E+00
      0.00000000000000E+00   0.00000000000000E+00   0.00000000000000E+00   0.00000000000000E+00  -1.77663869079549E-19
      5.50301878345581E-34  -1.77663869079549E-19   5.66206788877499E-18   0.00000000000000E+00   0.00000000000000E+00
      0.00000000000000E+00   0.00000000000000E+00   0.00000000000000E+00   0.00000000000000E+00   0.00000000000000E+00
      2.21558760524572E-18   0.00000000000000E+00   0.00000000000000E+00   0.00000000000000E+00   0.00000000000000E+00
      3.99885161400864E-18  -1.30184928481324E-33   3.99885161400864E-18  -1.41402237302074E-17   0.00000000000000E+00
     -1.40578679399276E-18   0.00000000000000E+00   0.00000000000000E+00  -3.82118774492909E-18   7.51547406467660E-34
     -3.82118774492909E-18   6.26256823618671E-18
      1.00000000000000E-03
      0.00000000000000E+00   1.42613166849234E-11   0.00000000000000E+00   0.00000000000000E+00  -7.82602133168940E-11
      5.20143580053442E-34  -7.82602133168940E-11   5.66172447511972E-18   0.00000000000000E+00   0.00000000000000E+00
      0.00000000000000E+00   0.00000000000000E+00   0.00000000000000E+00   0.00000000000000E+00   0.00000000000000E+00
      2.20915577705997E-18   0.00000000000000E+00   0.00000000000000E+00   0.00000000000000E+00   0.00000000000000E+00
      3.21824614178788E-18  -1.30169601262182E-33   3.21824614178788E-18  -1.41400241339491E-17   4.30000000000000E-04
      4.29999985605193E-04   0.00000000000000E+00   0.00000000000000E+00   7.82602100986478E-11   7.81552432568376E-34
      7.82602100986478E-11   6.26914388176933E-18
      2.08666666666667E-03
      0.00000000000000E+00   2.93011149855649E-11   0.00000000000000E+00   0.00000000000000E+00  -1.60790855867674E-10
      4.96338239532809E-34  -1.60790855867674E-10   5.66135132169445E-18   0.00000000000000E+00   0.00000000000000E+00
      0.00000000000000E+00   0.00000000000000E+00   0.00000000000000E+00   0.00000000000000E+00   0.00000000000000E+00
      2.20216718812298E-18   0.00000000000000E+00   0.00000000000000E+00   0.00000000000000E+00   0.00000000000000E+00
      7.38657357388186E-17  -1.21778203034136E-33   7.38657357388186E-17  -1.41398086839956E-17   8.97266666666667E-04
      8.97266637091464E-04   0.00000000000000E+00   0.00000000000000E+00   1.60790782001938E-10   7.21443790808552E-34
      1.60790782001938E-10   6.27629017417823E-18
      3.28200000000000E-03
      0.00000000000000E+00   4.52854539355607E-11   0.00000000000000E+00   0.00000000000000E+00  -2.48502699589983E-10
      5.62966156331762E-34  -2.48502699589983E-10   5.66094088022822E-18   0.00000000000000E+00   0.00000000000000E+00
      0.00000000000000E+00   0.00000000000000E+00   0.00000000000000E+00   0.00000000000000E+00   0.00000000000000E+00
      2.19448053405288E-18   0.00000000000000E+00   0.00000000000000E+00   0.00000000000000E+00   0.00000000000000E+00
      1.32410401535236E-16  -1.24206342054611E-33   1.32410401535236E-16  -1.41395734161396E-17   1.41126000000000E-03
      1.41125995429116E-03   0.00000000000000E+00   0.00000000000000E+00   2.48502567179581E-10   6.79097264214342E-34
      2.48502567179581E-10   6.28415200185847E-18
      4.59686666666667E-03
      0.00000000000000E+00   6.21965390856722E-11   0.00000000000000E+00   0.00000000000000E+00  -3.41297079505279E-10
      5.24901341498060E-34  -3.41297079505279E-10   5.66048942747337E-18   0.00000000000000E+00   0.00000000000000E+00
      0.00000000000000E+00   0.00000000000000E+00   0.00000000000000E+00   0.00000000000000E+00   0.00000000000000E+00
      2.18602616791949E-18   0.00000000000000E+00   0.00000000000000E+00   0.00000000000000E+00   0.00000000000000E+00
      1.66475777453344E-16  -1.25017659533848E-33   1.66475777453344E-16  -1.41393166971416E-17   1.97665266666667E-03
      1.97665260388893E-03   0.00000000000000E+00   0.00000000000000E+00   3.41296913029502E-10   7.25275253840424E-34
      3.41296913029502E-10   6.29280110174868E-18
      6.04322000000000E-03
      0.00000000000000E+00   8.00015612465101E-11   0.00000000000000E+00   0.00000000000000E+00  -4.38993152834123E-10
      5.70230005033584E-34  -4.38993152834123E-10   5.65999286891609E-18   0.00000000000000E+00   0.00000000000000E+00
      0.00000000000000E+00   0.00000000000000E+00   0.00000000000000E+00   0.00000000000000E+00   0.00000000000000E+00
      2.17672750936593E-18   0.00000000000000E+00   0.00000000000000E+00   0.00000000000000E+00   0.00000000000000E+00
      2.31160130797027E-16  -1.24394946422895E-33   2.31160130797027E-16  -1.41390367991153E-17   2.59858460000000E-03
      2.59858451925127E-03   0.00000000000000E+00   0.00000000000000E+00   4.38992921673992E-10   6.73719459195363E-34
      4.38992921673992E-10   6.30231642083332E-18
      7.63420866666667E-03
      0.00000000000000E+00   9.86490751817527E-11   0.00000000000000E+00   0.00000000000000E+00  -5.41308115536227E-10
      5.05498961542709E-34  -5.41308115536227E-10   5.65944670184997E-18   0.00000000000000E+00   0.00000000000000E+00
      0.00000000000000E+00   0.00000000000000E+00   0.00000000000000E+00   0.00000000000000E+00   0.00000000000000E+00
      2.16650035714781E-18   0.00000000000000E+00   0.00000000000000E+00   0.00000000000000E+00   0.00000000000000E+00
      1.53689222650026E-18  -1.17092883179363E-33   1.53689222650026E-18  -1.41387319030898E-17   3.28270972666667E-03
      3.28270962709679E-03   0.00000000000000E+00   0.00000000000000E+00   5.41308113999335E-10   6.65429870250919E-34
      5.41308113999335E-10   6.31278484409199E-18
      9.37368960888889E-03
      0.00000000000000E+00   1.17952098595718E-10   0.00000000000000E+00   0.00000000000000E+00  -6.47215020775128E-10
      5.97120910577761E-34  -6.47215020775128E-10   5.65884961538270E-18   0.00000000000000E+00   0.00000000000000E+00
      0.00000000000000E+00   0.00000000000000E+00   0.00000000000000E+00   0.00000000000000E+00   0.00000000000000E+00
      2.15532029989504E-18   0.00000000000000E+00   0.00000000000000E+00   0.00000000000000E+00   0.00000000000000E+00
     -2.67174795130858E-18  -1.25358083611461E-33  -2.67174795130858E-18  -1.41384021049413E-17   4.03068653182222E-03
      4.03068641276977E-03   0.00000000000000E+00   0.00000000000000E+00   6.47215023446876E-10   6.56459925536849E-34
      6.47215023446876E-10   6.32423218966360E-18
      1.12755221057185E-02
      0.00000000000000E+00   1.37814417565842E-10   0.00000000000000E+00   0.00000000000000E+00  -7.56185384170895E-10
      5.14596776349368E-34  -7.56185384170895E-10   5.65819686723786E-18   0.00000000000000E+00   0.00000000000000E+00
      0.00000000000000E+00   0.00000000000000E+00   0.00000000000000E+00   0.00000000000000E+00   0.00000000000000E+00
      2.14309869748716E-18   0.00000000000000E+00   0.00000000000000E+00   0.00000000000000E+00   0.00000000000000E+00
     -4.96503715193106E-19  -1.15766133216708E-33  -4.96503715193107E-19  -1.41380457335680E-17   4.84847450545896E-03
      4.84847436635966E-03   0.00000000000000E+00   0.00000000000000E+00   7.56185384667398E-10   6.43064555817707E-34
      7.56185384667398E-10   6.33675016884303E-18
      1.33548589689189E-02
      0.00000000000000E+00   1.58118310100210E-10   0.00000000000000E+00   0.00000000000000E+00  -8.67573137538852E-10
      5.79591589996768E-34  -8.67573137538852E-10   5.65748327426255E-18   0.00000000000000E+00   0.00000000000000E+00
      0.00000000000000E+00   0.00000000000000E+00   0.00000000000000E+00   0.00000000000000E+00   0.00000000000000E+00
      2.12973868899134E-18   0.00000000000000E+00   0.00000000000000E+00   0.00000000000000E+00   0.00000000000000E+00
     -1.79281482878528E-18  -1.20230512140134E-33  -1.79281482878528E-18  -1.41376610774959E-17   5.74258935663513E-03
      5.74258919704357E-03   0.00000000000000E+00   0.00000000000000E+00   8.67573139331667E-10   6.22713531404575E-34
      8.67573139331667E-10   6.35043911424196E-18
      1.56282672726847E-02
      0.00000000000000E+00   1.78724013344358E-10   0.00000000000000E+00   0.00000000000000E+00  -9.80611142769244E-10
      5.39999135816154E-34  -9.80611142769244E-10   5.65670317154075E-18   0.00000000000000E+00   0.00000000000000E+00
      0.00000000000000E+00   0.00000000000000E+00   0.00000000000000E+00   0.00000000000000E+00   0.00000000000000E+00
      2.11513443383257E-18   0.00000000000000E+00   0.00000000000000E+00   0.00000000000000E+00   0.00000000000000E+00
     -5.09679921593714E-18  -1.11738484306289E-33  -5.09679921593714E-18  -1.41372464001450E-17   6.72015492725441E-03
      6.72015474686628E-03   0.00000000000000E+00   0.00000000000000E+00   9.80611147866044E-10   5.77385707246734E-34
      9.80611147866044E-10   6.36540879477166E-18
      1.81138603514686E-02
      0.00000000000000E+00   1.99469765286284E-10   0.00000000000000E+00   0.00000000000000E+00  -1.09441246964325E-09
      5.53811194136433E-34  -1.09441246964325E-09   5.65585036772077E-18   0.00000000000000E+00   0.00000000000000E+00
      0.00000000000000E+00   0.00000000000000E+00   0.00000000000000E+00   0.00000000000000E+00   0.00000000000000E+00
      2.09917028337948E-18   0.00000000000000E+00   0.00000000000000E+00   0.00000000000000E+00   0.00000000000000E+00
     -4.47862923652156E-18  -1.10025167609618E-33  -4.47862923652156E-18  -1.41367999593280E-17   7.78895995113149E-03
      7.78895974980572E-03   0.00000000000000E+00   0.00000000000000E+00   1.09441247412188E-09   5.46440481959747E-34
      1.09441247412188E-09   6.38177930822772E-18
      2.08314421176057E-02
      0.00000000000000E+00   2.20173260214373E-10   0.00000000000000E+00   0.00000000000000E+00  -1.20797761205409E-09
      5.50419050029251E-34  -1.20797761205409E-09   5.65491809619981E-18   0.00000000000000E+00   0.00000000000000E+00
      0.00000000000000E+00   0.00000000000000E+00   0.00000000000000E+00   0.00000000000000E+00   0.00000000000000E+00
      2.08171987643457E-18   0.00000000000000E+00   0.00000000000000E+00   0.00000000000000E+00   0.00000000000000E+00
     -1.48674769153515E-18  -1.08120982603606E-33  -1.48674769153515E-18  -1.41363200314863E-17   8.95752011057043E-03
      8.95751988835004E-03   0.00000000000000E+00   0.00000000000000E+00   1.20797761354084E-09   5.30790776006813E-34
      1.20797761354084E-09   6.39968205885192E-18
      2.38026648485822E-02
      0.00000000000000E+00   2.40634052612818E-10   0.00000000000000E+00   0.00000000000000E+00  -1.32020844082226E-09
      5.41301626468634E-34  -1.32020844082226E-09   5.65389896179618E-18   0.00000000000000E+00   0.00000000000000E+00
      0.00000000000000E+00   0.00000000000000E+00   0.00000000000000E+00   0.00000000000000E+00   0.00000000000000E+00
      2.06264515204193E-18   0.00000000000000E+00   0.00000000000000E+00   0.00000000000000E+00   0.00000000000000E+00
      2.58249322215958E-19  -1.05915561253977E-33   2.58249322215957E-19  -1.41358049420291E-17   1.02351458848903E-02
      1.02351456420207E-02   0.00000000000000E+00   0.00000000000000E+00   1.32020844056401E-09   5.17853986071134E-34
      1.32020844056401E-09   6.41926082819098E-18
      2.70512017011165E-02
      0.00000000000000E+00   2.60637852777464E-10   0.00000000000000E+00   0.00000000000000E+00  -1.42993170699623E-09
      5.15761314690958E-34  -1.42993170699623E-09   5.65278488245226E-18   0.00000000000000E+00   0.00000000000000E+00
      0.00000000000000E+00   0.00000000000000E+00   0.00000000000000E+00   0.00000000000000E+00   0.00000000000000E+00
      2.04179527124059E-18   0.00000000000000E+00   0.00000000000000E+00   0.00000000000000E+00   0.00000000000000E+00
      7.50254364832984E-19  -1.00656908560888E-33   7.50254364832983E-19  -1.41352531014418E-17   1.16320167314801E-02
      1.16320164684229E-02   0.00000000000000E+00   0.00000000000000E+00   1.42993170624597E-09   4.90807770917919E-34
      1.42993170624597E-09   6.44067294774887E-18
      3.06029353265541E-02
      0.00000000000000E+00   2.79962697282641E-10   0.00000000000000E+00   0.00000000000000E+00  -1.53593301744726E-09
      5.56043316059327E-34  -1.53593301744726E-09   5.65156702549455E-18   0.00000000000000E+00   0.00000000000000E+00
      0.00000000000000E+00   0.00000000000000E+00   0.00000000000000E+00   0.00000000000000E+00   0.00000000000000E+00
      2.01900543931796E-18   0.00000000000000E+00   0.00000000000000E+00   0.00000000000000E+00   0.00000000000000E+00
      3.33546142874158E-19  -1.03938519256670E-33   3.33546142874157E-19  -1.41346630479192E-17   1.31592621904183E-02
      1.31592619078592E-02   0.00000000000000E+00   0.00000000000000E+00   1.53593301711372E-09   4.83341876507374E-34
      1.53593301711372E-09   6.46409058310676E-18
      3.44861640903658E-02
      0.00000000000000E+00   2.98386451196692E-10   0.00000000000000E+00   0.00000000000000E+00  -1.63699841036315E-09
      5.31204374154763E-34  -1.63699841036315E-09   5.65023573802836E-18   0.00000000000000E+00   0.00000000000000E+00
      0.00000000000000E+00   0.00000000000000E+00   0.00000000000000E+00   0.00000000000000E+00   0.00000000000000E+00
      1.99409562116875E-18   0.00000000000000E+00   0.00000000000000E+00   0.00000000000000E+00   0.00000000000000E+00
      4.24666771628357E-18  -9.73255368062227E-34   4.24666771628357E-18  -1.41340334999756E-17   1.48290505588573E-02
      1.48290502577066E-02   0.00000000000000E+00   0.00000000000000E+00   1.63699840611649E-09   4.42050993907464E-34
      1.63699840611649E-09   6.48970214077851E-18
      3.87318275388000E-02
      0.00000000000000E+00   3.15697005659376E-10   0.00000000000000E+00   0.00000000000000E+00  -1.73197031093010E-09
      5.30553235777138E-34  -1.73197031093010E-09   5.64878047077006E-18   0.00000000000000E+00   0.00000000000000E+00
      0.00000000000000E+00   0.00000000000000E+00   0.00000000000000E+00   0.00000000000000E+00   0.00000000000000E+00
      1.96686913726329E-18   0.00000000000000E+00   0.00000000000000E+00   0.00000000000000E+00   0.00000000000000E+00
     -3.84570115490090E-18  -9.39654723249850E-34  -3.84570115490090E-18  -1.41333634163134E-17   1.66546858416840E-02
      1.66546855230660E-02   0.00000000000000E+00   0.00000000000000E+00   1.73197031477581E-09   4.09101487472711E-34
      1.73197031477581E-09   6.51771380828007E-18
      4.33737529090880E-02
      0.00000000000000E+00   3.31705137082264E-10   0.00000000000000E+00   0.00000000000000E+00  -1.81981781952247E-09
      5.25846482734776E-34  -1.81981781952247E-09   5.64718969475248E-18   0.00000000000000E+00   0.00000000000000E+00
      0.00000000000000E+00   0.00000000000000E+00   0.00000000000000E+00   0.00000000000000E+00   0.00000000000000E+00
      1.93711112816365E-18   0.00000000000000E+00   0.00000000000000E+00   0.00000000000000E+00   0.00000000000000E+00
      1.16186334888604E-18  -9.02421654888693E-34   1.16186334888604E-18  -1.41326520630112E-17   1.86507137509078E-02
      1.86507134161379E-02   0.00000000000000E+00   0.00000000000000E+00   1.81981781836061E-09   3.76575172153918E-34
      1.81981781836061E-09   6.54835124009513E-18
      4.84489246472695E-02
      0.00000000000000E+00   3.46257356040042E-10   0.00000000000000E+00   0.00000000000000E+00  -1.89970790427837E-09
      5.32316209521692E-34  -1.89970790427837E-09   5.64545081025524E-18   0.00000000000000E+00   0.00000000000000E+00
      0.00000000000000E+00   0.00000000000000E+00   0.00000000000000E+00   0.00000000000000E+00   0.00000000000000E+00
      1.90458688050900E-18   0.00000000000000E+00   0.00000000000000E+00   0.00000000000000E+00   0.00000000000000E+00
     -5.92914156933687E-18  -8.72428548954837E-34  -5.92914156933687E-18  -1.41318990944191E-17   2.08330375983259E-02
      2.08330372488746E-02   0.00000000000000E+00   0.00000000000000E+00   1.89970791020751E-09   3.40112339433145E-34
      1.89970791020751E-09   6.58186140365490E-18
      5.39977790810147E-02
      0.00000000000000E+00   3.59251500257625E-10   0.00000000000000E+00   0.00000000000000E+00  -1.97109058905416E-09
      5.41262224107748E-34  -1.97109058905416E-09   5.64355004714002E-18   0.00000000000000E+00   0.00000000000000E+00
      0.00000000000000E+00   0.00000000000000E+00   0.00000000000000E+00   0.00000000000000E+00   0.00000000000000E+00
      1.86903999477639E-18   0.00000000000000E+00   0.00000000000000E+00   0.00000000000000E+00   0.00000000000000E+00
      4.61344488831331E-19  -8.59647870001829E-34   4.61344488831330E-19  -1.41311046412055E-17   2.32190450048363E-02
      2.32190446422775E-02   0.00000000000000E+00   0.00000000000000E+00   1.97109058859282E-09   3.18385645894081E-34
      1.97109058859282E-09   6.61851459928905E-18
      6.00645265952427E-02
      0.00000000000000E+00   3.70652109700326E-10   0.00000000000000E+00   0.00000000000000E+00  -2.03378320655405E-09
      5.28972739582546E-34  -2.03378320655405E-09   5.64147235578912E-18   0.00000000000000E+00   0.00000000000000E+00
      0.00000000000000E+00   0.00000000000000E+00   0.00000000000000E+00   0.00000000000000E+00   0.00000000000000E+00
      1.83019038242384E-18   0.00000000000000E+00   0.00000000000000E+00   0.00000000000000E+00   0.00000000000000E+00
      1.17976062470719E-18  -8.22005446541985E-34   1.17976062470719E-18  -1.41302694081632E-17   2.58277464359544E-02
      2.58277460618983E-02   0.00000000000000E+00   0.00000000000000E+00   2.03378320537429E-09   2.93032706959439E-34
      2.03378320537429E-09   6.65860666995018E-18
      6.66975038774654E-02
      0.00000000000000E+00   3.80504188289377E-10   0.00000000000000E+00   0.00000000000000E+00  -2.08804563668588E-09
      5.32489836638086E-34  -2.08804563668588E-09   5.63920128777688E-18   0.00000000000000E+00   0.00000000000000E+00
      0.00000000000000E+00   0.00000000000000E+00   0.00000000000000E+00   0.00000000000000E+00   0.00000000000000E+00
      1.78773207699423E-18   0.00000000000000E+00   0.00000000000000E+00   0.00000000000000E+00   0.00000000000000E+00
      2.29699126263914E-18  -7.96773497389708E-34   2.29699126263913E-18  -1.41293947833719E-17   2.86799266673101E-02
      2.86799262833222E-02   0.00000000000000E+00   0.00000000000000E+00   2.08804563438889E-09   2.64283660751622E-34
      2.08804563438889E-09   6.70246141860078E-18
      7.39495590393622E-02
      0.00000000000000E+00   3.88943195765864E-10   0.00000000000000E+00   0.00000000000000E+00  -2.13463438530283E-09
      5.64118297277403E-34  -2.13463438530283E-09   5.63671886527884E-18   0.00000000000000E+00   0.00000000000000E+00
      0.00000000000000E+00   0.00000000000000E+00   0.00000000000000E+00   0.00000000000000E+00   0.00000000000000E+00
      1.74133083865175E-18   0.00000000000000E+00   0.00000000000000E+00   0.00000000000000E+00   0.00000000000000E+00
     -8.46422395900448E-19  -7.95773483939061E-34  -8.46422395900448E-19  -1.41284829542929E-17   3.17983103869257E-02
      3.17983099944353E-02   0.00000000000000E+00   0.00000000000000E+00   2.13463438614925E-09   2.31655186661658E-34
      2.13463438614925E-09   6.75043325036229E-18
      8.18784726830360E-02
      0.00000000000000E+00   3.96198383622792E-10   0.00000000000000E+00   0.00000000000000E+00  -2.17482033850752E-09
      5.79552980569550E-34  -2.17482033850752E-09   5.63400543809433E-18   0.00000000000000E+00   0.00000000000000E+00
      0.00000000000000E+00   0.00000000000000E+00   0.00000000000000E+00   0.00000000000000E+00   0.00000000000000E+00
      1.69062153028329E-18   0.00000000000000E+00   0.00000000000000E+00   0.00000000000000E+00   0.00000000000000E+00
      5.77499574323205E-18  -7.78001516692578E-34   5.77499574323205E-18  -1.41275370266409E-17   3.52077432537055E-02
      3.52077428539119E-02   0.00000000000000E+00   0.00000000000000E+00   2.17482033273252E-09   1.98448536123029E-34
      2.17482033273252E-09   6.80291005826329E-18
      9.05474182667860E-02
      0.00000000000000E+00   4.02584861313011E-10   0.00000000000000E+00   0.00000000000000E+00  -2.21034464101598E-09
      5.30953934249882E-34  -2.21034464101598E-09   5.63103952758798E-18   0.00000000000000E+00   0.00000000000000E+00
      0.00000000000000E+00   0.00000000000000E+00   0.00000000000000E+00   0.00000000000000E+00   0.00000000000000E+00
      1.63520525267666E-18   0.00000000000000E+00   0.00000000000000E+00   0.00000000000000E+00   0.00000000000000E+00
      3.74946316814869E-19  -7.01873572086604E-34   3.74946316814868E-19  -1.41265611566628E-17   3.89353898547180E-02
      3.89353894485038E-02   0.00000000000000E+00   0.00000000000000E+00   2.21034464064103E-09   1.70919637836722E-34
      2.21034464064103E-09   6.86031637639813E-18
      1.00025465438353E-01
      0.00000000000000E+00   4.08479667415009E-10   0.00000000000000E+00   0.00000000000000E+00  -2.24328713634378E-09
      5.30359119574040E-34  -2.24328713634378E-09   5.62779765648736E-18   0.00000000000000E+00   0.00000000000000E+00
      0.00000000000000E+00   0.00000000000000E+00   0.00000000000000E+00   0.00000000000000E+00   0.00000000000000E+00
      1.57464621244199E-18   0.00000000000000E+00   0.00000000000000E+00   0.00000000000000E+00   0.00000000000000E+00
     -1.24618570003806E-17  -6.87107848993144E-34  -1.24618570003806E-17  -1.41255606888959E-17   4.30109501384917E-02
      4.30109497263609E-02   0.00000000000000E+00   0.00000000000000E+00   2.24328714880564E-09   1.56748729419104E-34
      2.24328714880564E-09   6.92311681996659E-18
      1.10025465438353E-01
      0.00000000000000E+00   4.14079725011484E-10   0.00000000000000E+00   0.00000000000000E+00  -2.27470937071182E-09
      5.35130641841187E-34  -2.27470937071182E-09   5.62437816026365E-18   0.00000000000000E+00   0.00000000000000E+00
      0.00000000000000E+00   0.00000000000000E+00   0.00000000000000E+00   0.00000000000000E+00   0.00000000000000E+00
      1.51078378519021E-18   0.00000000000000E+00   0.00000000000000E+00   0.00000000000000E+00   0.00000000000000E+00
     -8.72504565697957E-17  -6.69726050102005E-34  -8.72504565697957E-17  -1.41245766631756E-17   4.73109501384917E-02
      4.73109497207494E-02   0.00000000000000E+00   0.00000000000000E+00   2.27470945796228E-09   1.34595408260818E-34
      2.27470945796228E-09   6.98941471772177E-18
      1.20025465438353E-01
      0.00000000000000E+00   4.19431707629784E-10   0.00000000000000E+00   0.00000000000000E+00  -2.30481837023565E-09
      5.32307553259135E-34  -2.30481837023565E-09   5.62095952839577E-18   0.00000000000000E+00   0.00000000000000E+00
      0.00000000000000E+00   0.00000000000000E+00   0.00000000000000E+00   0.00000000000000E+00   0.00000000000000E+00
      1.44695206572720E-18   0.00000000000000E+00   0.00000000000000E+00   0.00000000000000E+00   0.00000000000000E+00
     -1.03441894008939E-16  -6.38340105792823E-34  -1.03441894008939E-16  -1.41236623159993E-17   5.16109501384917E-02
      5.16109497153939E-02   0.00000000000000E+00   0.00000000000000E+00   2.30481847367755E-09   1.06032552533689E-34
      2.30481847367755E-09   7.05575072187631E-18
      1.30025465438353E-01
      0.00000000000000E+00   4.24743249042190E-10   0.00000000000000E+00   0.00000000000000E+00  -2.33473907065266E-09
      5.33102951018343E-34  -2.33473907065266E-09   5.61754170474814E-18   0.00000000000000E+00   0.00000000000000E+00
      0.00000000000000E+00   0.00000000000000E+00   0.00000000000000E+00   0.00000000000000E+00   0.00000000000000E+00
      1.38314947205824E-18   0.00000000000000E+00   0.00000000000000E+00   0.00000000000000E+00   0.00000000000000E+00
     -1.25576855263423E-16  -6.23024402526449E-34  -1.25576855263423E-16  -1.41228140736909E-17   5.59109501384917E-02
      5.59109497100847E-02   0.00000000000000E+00   0.00000000000000E+00   2.33473919622952E-09   8.99214515081064E-35
      2.33473919622952E-09   7.12212289688444E-18
      1.40025465438353E-01
      0.00000000000000E+00   4.30114467978383E-10   0.00000000000000E+00   0.00000000000000E+00  -2.36501560302051E-09
      5.17897744943071E-34  -2.36501560302051E-09   5.61412464057795E-18   0.00000000000000E+00   0.00000000000000E+00
      0.00000000000000E+00   0.00000000000000E+00   0.00000000000000E+00   0.00000000000000E+00   0.00000000000000E+00
      1.31937458654586E-18   0.00000000000000E+00   0.00000000000000E+00   0.00000000000000E+00   0.00000000000000E+00
     -1.36061452972522E-16  -5.98247170026821E-34  -1.36061452972522E-16  -1.41220286274790E-17   6.02109501384917E-02
      6.02109497047208E-02   0.00000000000000E+00   0.00000000000000E+00   2.36501573908196E-09   8.03494250837499E-35
      2.36501573908196E-09   7.18852940035520E-18
      1.50025465438353E-01
      0.00000000000000E+00   4.35585480907508E-10   0.00000000000000E+00   0.00000000000000E+00  -2.39586683811962E-09
      5.22742919756557E-34  -2.39586683811962E-09   5.61070829430408E-18   0.00000000000000E+00   0.00000000000000E+00
      0.00000000000000E+00   0.00000000000000E+00   0.00000000000000E+00   0.00000000000000E+00   0.00000000000000E+00
      1.25562615173060E-18   0.00000000000000E+00   0.00000000000000E+00   0.00000000000000E+00   0.00000000000000E+00
     -1.46494358705530E-16  -5.88928728092963E-34  -1.46494358705530E-16  -1.41213029255459E-17   6.45109501384917E-02
      6.45109496992614E-02   0.00000000000000E+00   0.00000000000000E+00   2.39586698461398E-09   6.61858083364056E-35
      2.39586698461398E-09   7.25496847951127E-18
      1.60025465438353E-01
      0.00000000000000E+00   4.41159523950765E-10   0.00000000000000E+00   0.00000000000000E+00  -2.42730733430736E-09
      5.14819365189288E-34  -2.42730733430736E-09   5.60729263125677E-18   0.00000000000000E+00   0.00000000000000E+00
      0.00000000000000E+00   0.00000000000000E+00   0.00000000000000E+00   0.00000000000000E+00   0.00000000000000E+00
      1.19190306965644E-18   0.00000000000000E+00   0.00000000000000E+00   0.00000000000000E+00   0.00000000000000E+00
     -1.31778006816262E-16  -5.71190852977557E-34  -1.31778006816262E-16  -1.41206341695332E-17   6.88109501384917E-02
      6.88109496937028E-02   0.00000000000000E+00   0.00000000000000E+00   2.42730746608537E-09   5.63714877882692E-35
      2.42730746608537E-09   7.32143846861995E-18
      1.70025465438353E-01
      0.00000000000000E+00   4.46818693944736E-10   0.00000000000000E+00   0.00000000000000E+00  -2.45923456335146E-09
      5.36970073250675E-34  -2.45923456335146E-09   5.60387762206812E-18   0.00000000000000E+00   0.00000000000000E+00
      0.00000000000000E+00   0.00000000000000E+00   0.00000000000000E+00   0.00000000000000E+00   0.00000000000000E+00
      1.12820436057171E-18   0.00000000000000E+00   0.00000000000000E+00   0.00000000000000E+00   0.00000000000000E+00
     -1.11468775812313E-16  -5.86003188175513E-34  -1.11468775812313E-16  -1.41200197603910E-17   7.31109501384917E-02
      7.31109496880597E-02   0.00000000000000E+00   0.00000000000000E+00   2.45923467482024E-09   4.90331149248384E-35
      2.45923467482024E-09   7.38793777775121E-18
      1.80025465438353E-01
      0.00000000000000E+00   4.52541210097432E-10   0.00000000000000E+00   0.00000000000000E+00  -2.49152661765903E-09
      5.36256178519057E-34  -2.49152661765903E-09   5.60046324070019E-18   0.00000000000000E+00   0.00000000000000E+00
      0.00000000000000E+00   0.00000000000000E+00   0.00000000000000E+00   0.00000000000000E+00   0.00000000000000E+00
      1.06452916185643E-18   0.00000000000000E+00   0.00000000000000E+00   0.00000000000000E+00   0.00000000000000E+00
     -8.68154266184123E-17  -5.76815953954977E-34  -8.68154266184123E-17  -1.41194572942250E-17   7.74109501384917E-02
      7.74109496823532E-02   0.00000000000000E+00   0.00000000000000E+00   2.49152670447446E-09   4.05597754359203E-35
      2.49152670447446E-09   7.45446489166838E-18
      1.90025465438353E-01
      0.00000000000000E+00   4.58311508943255E-10   0.00000000000000E+00   0.00000000000000E+00  -2.52409858560865E-09