DF-ISE text

Info {
  version   = 1.0
  type      = xyplot
  datasets  = [
    "time"
    "source OuterVoltage" "source InnerVoltage" "source QuasiFermiPotential" "source DisplacementCurrent" "source eCurrent"
    "source hCurrent" "source TotalCurrent" "source Charge" "gate OuterVoltage" "gate InnerVoltage"
    "gate QuasiFermiPotential" "gate DisplacementCurrent" "gate eCurrent" "gate hCurrent" "gate TotalCurrent"
    "gate Charge" "substrate OuterVoltage" "substrate InnerVoltage" "substrate QuasiFermiPotential" "substrate DisplacementCurrent"
    "substrate eCurrent" "substrate hCurrent" "substrate TotalCurrent" "substrate Charge" "drain OuterVoltage"
    "drain InnerVoltage" "drain QuasiFermiPotential" "drain DisplacementCurrent" "drain eCurrent" "drain hCurrent"
    "drain TotalCurrent" "drain Charge" ]
  functions = [
    Time
    OuterVoltage InnerVoltage QuasiFermiPotential DisplacementCurrent eCurrent
    hCurrent TotalCurrent Charge OuterVoltage InnerVoltage
    QuasiFermiPotential DisplacementCurrent eCurrent hCurrent TotalCurrent
    Charge OuterVoltage InnerVoltage QuasiFermiPotential DisplacementCurrent
    eCurrent hCurrent TotalCurrent Charge OuterVoltage
    InnerVoltage QuasiFermiPotential DisplacementCurrent eCurrent hCurrent
    TotalCurrent Charge ]
}

Data {
      0.00000000000000E+00
      0.00000000000000E+00   0.00000000000000E+00   0.00000000000000E+00   0.00000000000000E+00  -4.21623356916984E-20
     -4.16431328789577E-35  -4.21623356916985E-20   6.62283708293252E-18   0.00000000000000E+00   0.00000000000000E+00
      0.00000000000000E+00   0.00000000000000E+00   0.00000000000000E+00   0.00000000000000E+00   0.00000000000000E+00
      3.95223226690153E-18   0.00000000000000E+00   0.00000000000000E+00   0.00000000000000E+00   0.00000000000000E+00
      3.99500985559821E-20   7.90143661157097E-35   3.99500985559822E-20  -1.57068603123549E-17   0.00000000000000E+00
      0.00000000000000E+00   0.00000000000000E+00   0.00000000000000E+00   2.21223713571625E-21  -3.73712332367519E-35
      2.21223713571621E-21   5.13179096252075E-18
      0.00000000000000E+00
      0.00000000000000E+00   4.63862309128923E-19   0.00000000000000E+00   0.00000000000000E+00  -7.82950999443740E-19
     -3.57355233857843E-35  -7.82950999443740E-19   6.61874102875206E-18   0.00000000000000E+00   0.00000000000000E+00
      0.00000000000000E+00   0.00000000000000E+00   0.00000000000000E+00   0.00000000000000E+00   0.00000000000000E+00
      3.94359480761715E-18   0.00000000000000E+00   0.00000000000000E+00   0.00000000000000E+00   0.00000000000000E+00
      8.96709139000924E-19   3.80481941427612E-35   8.96709139000924E-19  -1.56907870141450E-17   0.00000000000000E+00
     -4.63862309128923E-19   0.00000000000000E+00   0.00000000000000E+00  -1.13758139557184E-19  -2.31267075697695E-36
     -1.13758139557184E-19   5.12845117777582E-18
      1.00000000000000E-03
      0.00000000000000E+00   1.19796569707096E-12   0.00000000000000E+00   0.00000000000000E+00  -6.62190822093510E-12
     -3.20199771488696E-35  -6.62190822093510E-12   6.61871367578822E-18   0.00000000000000E+00   0.00000000000000E+00
      0.00000000000000E+00   0.00000000000000E+00   0.00000000000000E+00   0.00000000000000E+00   0.00000000000000E+00
      3.94297676548999E-18   0.00000000000000E+00   0.00000000000000E+00   0.00000000000000E+00   0.00000000000000E+00
     -9.44133650951302E-19   5.20476307847886E-35  -9.44133650951302E-19  -1.56907772817964E-17   5.00000000000000E-05
      4.99999988015021E-05   0.00000000000000E+00   0.00000000000000E+00   6.62190916506875E-12  -2.00276536359190E-35
      6.62190916506875E-12   5.12908684051819E-18
      2.09333333333333E-03
      0.00000000000000E+00   2.50385452670847E-12   0.00000000000000E+00   0.00000000000000E+00  -1.38403758371145E-11
     -4.74866112124916E-35  -1.38403758371145E-11   6.61868377007197E-18   0.00000000000000E+00   0.00000000000000E+00
      0.00000000000000E+00   0.00000000000000E+00   0.00000000000000E+00   0.00000000000000E+00   0.00000000000000E+00
      3.94230104863106E-18   0.00000000000000E+00   0.00000000000000E+00   0.00000000000000E+00   0.00000000000000E+00
      1.21545160386310E-18   7.31818498464773E-35   1.21545160386310E-18  -1.56907666628889E-17   1.04666666666667E-04
      1.04666664161708E-04   0.00000000000000E+00   0.00000000000000E+00   1.38403746216629E-11  -2.56952386339859E-35
      1.38403746216629E-11   5.12978184418580E-18
      3.29600000000000E-03
      0.00000000000000E+00   3.93546163867764E-12   0.00000000000000E+00   0.00000000000000E+00  -2.17538557420238E-11
     -5.88602060569316E-35  -2.17538557420238E-11   6.61865087401499E-18   0.00000000000000E+00   0.00000000000000E+00
      0.00000000000000E+00   0.00000000000000E+00   0.00000000000000E+00   0.00000000000000E+00   0.00000000000000E+00
      3.94155777117525E-18   0.00000000000000E+00   0.00000000000000E+00   0.00000000000000E+00   0.00000000000000E+00
      4.43185880019981E-19   9.06312387333548E-35   4.43185880019981E-19  -1.56907550083629E-17   1.64800000000000E-04
      1.64799996062794E-04   0.00000000000000E+00   0.00000000000000E+00   2.17538552988379E-11  -3.17710326764231E-35
      2.17538552988379E-11   5.13054636317268E-18
      4.61893333333333E-03
      0.00000000000000E+00   5.50426901671635E-12   0.00000000000000E+00   0.00000000000000E+00  -3.04255992325540E-11
     -3.15296835403445E-35  -3.04255992325540E-11   6.61861468863199E-18   0.00000000000000E+00   0.00000000000000E+00
      0.00000000000000E+00   0.00000000000000E+00   0.00000000000000E+00   0.00000000000000E+00   0.00000000000000E+00
      3.94074017937717E-18   0.00000000000000E+00   0.00000000000000E+00   0.00000000000000E+00   0.00000000000000E+00
     -2.57599198561685E-19   4.86490202653169E-35  -2.57599198561685E-19  -1.56907422201461E-17   2.30946666666667E-04
      2.30946661159963E-04   0.00000000000000E+00   0.00000000000000E+00   3.04255994901532E-11  -1.71193367249724E-35
      3.04255994901532E-11   5.13138735213705E-18
      6.07416000000000E-03
      0.00000000000000E+00   7.22262189231975E-12   0.00000000000000E+00   0.00000000000000E+00  -3.99239619704580E-11
     -2.48986625493482E-35  -3.99239619704580E-11   6.61857488504925E-18   0.00000000000000E+00   0.00000000000000E+00
      0.00000000000000E+00   0.00000000000000E+00   0.00000000000000E+00   0.00000000000000E+00   0.00000000000000E+00
      3.93984084459825E-18   0.00000000000000E+00   0.00000000000000E+00   0.00000000000000E+00   0.00000000000000E+00
     -1.12710156371670E-18   3.91261056330158E-35  -1.12710156371670E-18  -1.56907281915031E-17   3.03708000000000E-04
      3.03707992774187E-04   0.00000000000000E+00   0.00000000000000E+00   3.99239630975596E-11  -1.42274430836677E-35
      3.99239630975596E-11   5.13231246185554E-18
      7.67490933333333E-03
      0.00000000000000E+00   9.10385398756376E-12   0.00000000000000E+00   0.00000000000000E+00  -5.03226205799742E-11
     -4.92894412320845E-35  -5.03226205799742E-11   6.61853110151811E-18   0.00000000000000E+00   0.00000000000000E+00
      0.00000000000000E+00   0.00000000000000E+00   0.00000000000000E+00   0.00000000000000E+00   0.00000000000000E+00
      3.93885159591681E-18   0.00000000000000E+00   0.00000000000000E+00   0.00000000000000E+00   0.00000000000000E+00
      7.26417452217610E-19   4.34952328512998E-35   7.26417452217610E-19  -1.56907128064054E-17   3.83745466666667E-04
      3.83745457558799E-04   0.00000000000000E+00   0.00000000000000E+00   5.03226198535567E-11   5.79420838078468E-36
      5.03226198535567E-11   5.13333010897052E-18
      9.43573360000000E-03
      0.00000000000000E+00   1.11622851957935E-11   0.00000000000000E+00   0.00000000000000E+00  -6.17007616270318E-11
     -2.02635507334561E-35  -6.17007616270318E-11   6.61848294012962E-18   0.00000000000000E+00   0.00000000000000E+00
      0.00000000000000E+00   0.00000000000000E+00   0.00000000000000E+00   0.00000000000000E+00   0.00000000000000E+00
      3.93776344601964E-18   0.00000000000000E+00   0.00000000000000E+00   0.00000000000000E+00   0.00000000000000E+00
      5.01008103180243E-19   6.24229110286991E-35   5.01008103180243E-19  -1.56906959388897E-17   4.71786680000000E-04
      4.71786668832800E-04   0.00000000000000E+00   0.00000000000000E+00   6.17007611260237E-11  -4.21593602952431E-35
      6.17007611260237E-11   5.13444955274045E-18
      1.13726402933333E-02
      0.00000000000000E+00   1.34132902332450E-11   0.00000000000000E+00   0.00000000000000E+00  -7.41432599539158E-11
     -5.46747588357561E-35  -7.41432599539158E-11   6.61842996320191E-18   0.00000000000000E+00   0.00000000000000E+00
      0.00000000000000E+00   0.00000000000000E+00   0.00000000000000E+00   0.00000000000000E+00   0.00000000000000E+00
      3.93656650970728E-18   0.00000000000000E+00   0.00000000000000E+00   0.00000000000000E+00   0.00000000000000E+00
      8.00856650956360E-20   7.52599260200383E-35   8.00856650956360E-20  -1.56906774524080E-17   5.68632014666667E-04
      5.68632001247487E-04   0.00000000000000E+00   0.00000000000000E+00   7.41432598738300E-11  -2.05851671842823E-35
      7.41432598738300E-11   5.13568097949880E-18
      1.35032376560000E-02
      0.00000000000000E+00   1.58732582830245E-11   0.00000000000000E+00   0.00000000000000E+00  -8.77407795645067E-11
     -1.79179118768536E-35  -8.77407795645067E-11   6.61837168930654E-18   0.00000000000000E+00   0.00000000000000E+00
      0.00000000000000E+00   0.00000000000000E+00   0.00000000000000E+00   0.00000000000000E+00   0.00000000000000E+00
      3.93524991427936E-18   0.00000000000000E+00   0.00000000000000E+00   0.00000000000000E+00   0.00000000000000E+00
     -9.10452237941502E-19  -3.02291679724779E-36  -9.10452237941502E-19  -1.56906571991858E-17   6.75161882800000E-04
      6.75161866919780E-04   0.00000000000000E+00   0.00000000000000E+00   8.77407804749589E-11   2.09408286741013E-35
      8.77407804749589E-11   5.13703559559989E-18
      1.58468947549333E-02
      0.00000000000000E+00   1.85596607190052E-11   0.00000000000000E+00   0.00000000000000E+00  -1.02589813393081E-10
     -3.29897774942516E-35  -1.02589813393081E-10   6.61830758889815E-18   0.00000000000000E+00   0.00000000000000E+00
      0.00000000000000E+00   0.00000000000000E+00   0.00000000000000E+00   0.00000000000000E+00   0.00000000000000E+00
      3.93380170099329E-18   0.00000000000000E+00   0.00000000000000E+00   0.00000000000000E+00   0.00000000000000E+00
     -1.27067138700991E-18   5.62408370173294E-35  -1.27067138700991E-18  -1.56906350195992E-17   7.92344737746667E-04
      7.92344719178891E-04   0.00000000000000E+00   0.00000000000000E+00   1.02589814663752E-10  -2.32510595230778E-35
      1.02589814663752E-10   5.13852572970771E-18
      1.84249175637600E-02
      0.00000000000000E+00   2.14910033280100E-11   0.00000000000000E+00   0.00000000000000E+00  -1.18792618690171E-10
     -2.64019167186105E-35  -1.18792618690171E-10   6.61823707950820E-18   0.00000000000000E+00   0.00000000000000E+00
      0.00000000000000E+00   0.00000000000000E+00   0.00000000000000E+00   0.00000000000000E+00   0.00000000000000E+00
      3.93220871671206E-18   0.00000000000000E+00   0.00000000000000E+00   0.00000000000000E+00   0.00000000000000E+00
     -7.79688969979491E-20   7.83830085855752E-35  -7.79688969979490E-20  -1.56906107415937E-17   9.21245878188001E-04
      9.21245856687626E-04   0.00000000000000E+00   0.00000000000000E+00   1.18792618768140E-10  -5.19810918669646E-35
      1.18792618768140E-10   5.14016494537344E-18
      2.12607426534693E-02
      0.00000000000000E+00   2.46867952310360E-11   0.00000000000000E+00   0.00000000000000E+00  -1.36457027193439E-10
     -3.33278749507365E-35  -1.36457027193439E-10   6.61815952045914E-18   0.00000000000000E+00   0.00000000000000E+00
      0.00000000000000E+00   0.00000000000000E+00   0.00000000000000E+00   0.00000000000000E+00   0.00000000000000E+00
      3.93045649476687E-18   0.00000000000000E+00   0.00000000000000E+00   0.00000000000000E+00   0.00000000000000E+00
     -8.07905153567751E-19   8.58514160808921E-35  -8.07905153567751E-19  -1.56905841801668E-17   1.06303713267347E-03
      1.06303710797594E-03   0.00000000000000E+00   0.00000000000000E+00   1.36457028001344E-10  -5.25235411301555E-35
      1.36457028001344E-10   5.14196816494070E-18
      2.43801502521496E-02
      0.00000000000000E+00   2.81675080633722E-11   0.00000000000000E+00   0.00000000000000E+00  -1.55696113902799E-10
     -3.30491512001425E-35  -1.55696113902799E-10   6.61807420705111E-18   0.00000000000000E+00   0.00000000000000E+00
      0.00000000000000E+00   0.00000000000000E+00   0.00000000000000E+00   0.00000000000000E+00   0.00000000000000E+00
      3.92852912396658E-18   0.00000000000000E+00   0.00000000000000E+00   0.00000000000000E+00   0.00000000000000E+00
     -8.99763189049967E-19   5.63149536571689E-35  -8.99763189049967E-19  -1.56905551369445E-17   1.21900751260748E-03
      1.21900748442776E-03   0.00000000000000E+00   0.00000000000000E+00   1.55696114802562E-10  -2.32658024570264E-35
      1.55696114802562E-10   5.14395180592687E-18
      2.78114986106979E-02
      0.00000000000000E+00   3.19544618644707E-11   0.00000000000000E+00   0.00000000000000E+00  -1.76627650504023E-10
     -4.68412124941260E-35  -1.76627650504023E-10   6.61798036416906E-18   0.00000000000000E+00   0.00000000000000E+00
      0.00000000000000E+00   0.00000000000000E+00   0.00000000000000E+00   0.00000000000000E+00   0.00000000000000E+00
      3.92640910458160E-18   0.00000000000000E+00   0.00000000000000E+00   0.00000000000000E+00   0.00000000000000E+00
     -1.07307251929881E-18   9.46319399746599E-35  -1.07307251929881E-18  -1.56905233998954E-17   1.39057493053490E-03
      1.39057489856662E-03   0.00000000000000E+00   0.00000000000000E+00   1.76627651577096E-10  -4.77907274805339E-35
      1.76627651577096E-10   5.14613393114477E-18
      3.15859818051010E-02
      0.00000000000000E+00   3.60696761781458E-11   0.00000000000000E+00   0.00000000000000E+00  -1.99373340829167E-10
     -2.75980465219753E-35  -1.99373340829167E-10   6.61787713925219E-18   0.00000000000000E+00   0.00000000000000E+00
      0.00000000000000E+00   0.00000000000000E+00   0.00000000000000E+00   0.00000000000000E+00   0.00000000000000E+00
      3.92407719001223E-18   0.00000000000000E+00   0.00000000000000E+00   0.00000000000000E+00   0.00000000000000E+00
      4.11137117943654E-19   5.44824273745687E-35   4.11137117943654E-19  -1.56904887432235E-17   1.57929909025505E-03
      1.57929905416985E-03   0.00000000000000E+00   0.00000000000000E+00   1.99373340418029E-10  -2.68843808525934E-35
      1.99373340418029E-10   5.14853441395908E-18
      3.57379133189445E-02
      0.00000000000000E+00   4.05357197611859E-11   0.00000000000000E+00   0.00000000000000E+00  -2.24057759372428E-10
     -3.64011043817567E-35  -2.24057759372428E-10   6.61776359456291E-18   0.00000000000000E+00   0.00000000000000E+00
      0.00000000000000E+00   0.00000000000000E+00   0.00000000000000E+00   0.00000000000000E+00   0.00000000000000E+00
      3.92151221272708E-18   0.00000000000000E+00   0.00000000000000E+00   0.00000000000000E+00   0.00000000000000E+00
      7.19639357968615E-19   8.04089682678837E-35   7.19639357968615E-19  -1.56904509275051E-17   1.78689566594722E-03
      1.78689562539412E-03   0.00000000000000E+00   0.00000000000000E+00   2.24057758652789E-10  -4.40078638861269E-35
      2.24057758652789E-10   5.15117512021513E-18
      4.03050379841723E-02
      0.00000000000000E+00   4.53754072174032E-11   0.00000000000000E+00   0.00000000000000E+00  -2.50806965083692E-10
     -2.86191650537347E-35  -2.50806965083692E-10   6.61763869868482E-18   0.00000000000000E+00   0.00000000000000E+00
      0.00000000000000E+00   0.00000000000000E+00   0.00000000000000E+00   0.00000000000000E+00   0.00000000000000E+00
      3.91869089292001E-18   0.00000000000000E+00   0.00000000000000E+00   0.00000000000000E+00   0.00000000000000E+00
      6.98501547443143E-19   2.24967600581570E-35   6.98501547443143E-19  -1.56904097001426E-17   2.01525189920861E-03
      2.01525185381384E-03   0.00000000000000E+00   0.00000000000000E+00   2.50806964385190E-10   6.12240499557764E-36
      2.50806964385190E-10   5.15408010853777E-18
      4.53288751159228E-02
      0.00000000000000E+00   5.06115165054875E-11   0.00000000000000E+00   0.00000000000000E+00  -2.79746712439479E-10
     -4.42067726277887E-35  -2.79746712439479E-10   6.61750131717393E-18   0.00000000000000E+00   0.00000000000000E+00
      0.00000000000000E+00   0.00000000000000E+00   0.00000000000000E+00   0.00000000000000E+00   0.00000000000000E+00
      3.91558762817603E-18   0.00000000000000E+00   0.00000000000000E+00   0.00000000000000E+00   0.00000000000000E+00
      1.09401963588563E-18   5.47960708308088E-35   1.09401963588563E-18  -1.56903647962190E-17   2.26644375579614E-03
      2.26644370516312E-03   0.00000000000000E+00   0.00000000000000E+00   2.79746711345459E-10  -1.05892982030200E-35
      2.79746711345459E-10   5.15727585086900E-18
      5.08550959608485E-02
      0.00000000000000E+00   5.62663566193341E-11   0.00000000000000E+00   0.00000000000000E+00  -3.11000184270134E-10
     -2.69158391387991E-35  -3.11000184270134E-10   6.61735020227880E-18   0.00000000000000E+00   0.00000000000000E+00
      0.00000000000000E+00   0.00000000000000E+00   0.00000000000000E+00   0.00000000000000E+00   0.00000000000000E+00
      3.91217426228689E-18   0.00000000000000E+00   0.00000000000000E+00   0.00000000000000E+00   0.00000000000000E+00
      7.19001126425782E-19   5.92497713295310E-35   7.19001126425782E-19  -1.56903159398813E-17   2.54275479804242E-03
      2.54275474175228E-03   0.00000000000000E+00   0.00000000000000E+00   3.11000183551133E-10  -3.23339321907318E-35
      3.11000183551133E-10   5.16079147531563E-18
      5.69339388902666E-02
      0.00000000000000E+00   6.23612976955244E-11   0.00000000000000E+00   0.00000000000000E+00  -3.44685279577468E-10
     -2.49704726384731E-35  -3.44685279577468E-10   6.61718398163602E-18   0.00000000000000E+00   0.00000000000000E+00
      0.00000000000000E+00   0.00000000000000E+00   0.00000000000000E+00   0.00000000000000E+00   0.00000000000000E+00
      3.90841983112171E-18   0.00000000000000E+00   0.00000000000000E+00   0.00000000000000E+00   0.00000000000000E+00
      2.75357607609024E-18   2.55528056124981E-35   2.75357607609024E-18  -1.56902628463264E-17   2.84669694451333E-03
      2.84669688212582E-03   0.00000000000000E+00   0.00000000000000E+00   3.44685276823892E-10  -5.82332974024943E-37
      3.44685276823892E-10   5.16465903356867E-18
      6.36206661126266E-02
      0.00000000000000E+00   6.89161285640283E-11   0.00000000000000E+00   0.00000000000000E+00  -3.80911198045392E-10
     -3.56439475384810E-35  -3.80911198045392E-10   6.61700114584170E-18   0.00000000000000E+00   0.00000000000000E+00
      0.00000000000000E+00   0.00000000000000E+00   0.00000000000000E+00   0.00000000000000E+00   0.00000000000000E+00
      3.90429028337049E-18   0.00000000000000E+00   0.00000000000000E+00   0.00000000000000E+00   0.00000000000000E+00
      5.98975865060530E-18   3.07080741484281E-35   5.98975865060530E-18  -1.56902052246525E-17   3.18103330563133E-03
      3.18103323668641E-03   0.00000000000000E+00   0.00000000000000E+00   3.80911192055633E-10   4.93587339005285E-36
      3.80911192055633E-10   5.16891379544031E-18
      7.09760660572226E-02
      0.00000000000000E+00   7.59483549245299E-11   0.00000000000000E+00   0.00000000000000E+00  -4.19774439224447E-10
     -3.70756793439066E-35  -4.19774439224447E-10   6.61680003478530E-18   0.00000000000000E+00   0.00000000000000E+00
      0.00000000000000E+00   0.00000000000000E+00   0.00000000000000E+00   0.00000000000000E+00   0.00000000000000E+00
      3.89974817362461E-18   0.00000000000000E+00   0.00000000000000E+00   0.00000000000000E+00   0.00000000000000E+00
      2.44540704345825E-18   5.75451855205283E-35   2.44540704345825E-18  -1.56901427816823E-17   3.54880330286113E-03
      3.54880322688126E-03   0.00000000000000E+00   0.00000000000000E+00   4.19774436779039E-10  -2.04695061766217E-35
      4.19774436779039E-10   5.17359457327239E-18
      7.90670059962782E-02
      0.00000000000000E+00   8.34723268214245E-11   0.00000000000000E+00   0.00000000000000E+00  -4.61354098520175E-10
     -2.52820471809702E-35  -4.61354098520175E-10   6.61657882262395E-18   0.00000000000000E+00   0.00000000000000E+00
      0.00000000000000E+00   0.00000000000000E+00   0.00000000000000E+00   0.00000000000000E+00   0.00000000000000E+00
      3.89475232509897E-18   0.00000000000000E+00   0.00000000000000E+00   0.00000000000000E+00   0.00000000000000E+00
      1.30302919581299E-17   3.70113505830922E-35   1.30302919581299E-17  -1.56900752270118E-17   3.95335029981391E-03
      3.95335021630719E-03   0.00000000000000E+00   0.00000000000000E+00   4.61354085489883E-10  -1.17293034021219E-35
      4.61354085489883E-10   5.17874407928899E-18
      8.79670399292394E-02
      0.00000000000000E+00   9.14982835513238E-11   0.00000000000000E+00   0.00000000000000E+00  -5.05706407400057E-10
     -3.12786504826753E-35  -5.05706407400057E-10   6.61633550126224E-18   0.00000000000000E+00   0.00000000000000E+00
      0.00000000000000E+00   0.00000000000000E+00   0.00000000000000E+00   0.00000000000000E+00   0.00000000000000E+00
      3.88925745902601E-18   0.00000000000000E+00   0.00000000000000E+00   0.00000000000000E+00   0.00000000000000E+00
      1.03563627978044E-17   5.84218038026739E-35   1.03563627978044E-17  -1.56900022795773E-17   4.39835199646197E-03
      4.39835190492628E-03   0.00000000000000E+00   0.00000000000000E+00   5.05706397043694E-10  -2.71431533199986E-35
      5.05706397043694E-10   5.18440931928908E-18
      9.77570772554967E-02
      0.00000000000000E+00   1.00031187513211E-10   0.00000000000000E+00   0.00000000000000E+00  -5.52858489830176E-10
     -4.83015652253816E-35  -5.52858489830176E-10   6.61606786218997E-18   0.00000000000000E+00   0.00000000000000E+00
      0.00000000000000E+00   0.00000000000000E+00   0.00000000000000E+00   0.00000000000000E+00   0.00000000000000E+00
      3.88321378746218E-18   0.00000000000000E+00   0.00000000000000E+00   0.00000000000000E+00   0.00000000000000E+00
      3.38175468612875E-17   4.18333776889489E-35   3.38175468612875E-17  -1.56899236760745E-17   4.88785386277484E-03
      4.88785376270310E-03   0.00000000000000E+00   0.00000000000000E+00   5.52858456012629E-10   6.46818753643275E-36
      5.52858456012629E-10   5.19064202642234E-18
      1.07757077255497E-01
      0.00000000000000E+00   1.08435911011629E-10   0.00000000000000E+00   0.00000000000000E+00  -5.99300546954285E-10
     -2.88432851347802E-35  -5.99300546954285E-10   6.61579449864845E-18   0.00000000000000E+00   0.00000000000000E+00
      0.00000000000000E+00   0.00000000000000E+00   0.00000000000000E+00   0.00000000000000E+00   0.00000000000000E+00
      3.87704123043926E-18   0.00000000000000E+00   0.00000000000000E+00   0.00000000000000E+00   0.00000000000000E+00
      3.58538824968965E-17   6.78100073437875E-35   3.58538824968965E-17  -1.56898451473736E-17   5.38785386277483E-03
      5.38785375429535E-03   0.00000000000000E+00   0.00000000000000E+00   5.99300511100403E-10  -3.89667222090073E-35
      5.99300511100403E-10   5.19700941828580E-18
      1.17757077255497E-01
      0.00000000000000E+00   1.16535181179486E-10   0.00000000000000E+00   0.00000000000000E+00  -6.44053123344106E-10
     -2.91654211192079E-35  -6.44053123344106E-10   6.61552115059924E-18   0.00000000000000E+00   0.00000000000000E+00
      0.00000000000000E+00   0.00000000000000E+00   0.00000000000000E+00   0.00000000000000E+00   0.00000000000000E+00
      3.87086940526557E-18   0.00000000000000E+00   0.00000000000000E+00   0.00000000000000E+00   0.00000000000000E+00
      4.00783337801713E-17   4.85437699772772E-35   4.00783337801713E-17  -1.56897683856093E-17   5.88785386277483E-03
      5.88785374619320E-03   0.00000000000000E+00   0.00000000000000E+00   6.44053083265773E-10  -1.93783488580693E-35
      6.44053083265773E-10   5.20337782974449E-18
      1.27757077255497E-01
      0.00000000000000E+00   1.24338030807528E-10   0.00000000000000E+00   0.00000000000000E+00  -6.87166286951881E-10
     -3.33333507704837E-35  -6.87166286951881E-10   6.61524781790027E-18   0.00000000000000E+00   0.00000000000000E+00
      0.00000000000000E+00   0.00000000000000E+00   0.00000000000000E+00   0.00000000000000E+00   0.00000000000000E+00
      3.86469830554492E-18   0.00000000000000E+00   0.00000000000000E+00   0.00000000000000E+00   0.00000000000000E+00
      3.94906954596429E-17   5.83325853389253E-35   3.94906954596429E-17  -1.56896933785134E-17   6.38785386277483E-03
      6.38785373838764E-03   0.00000000000000E+00   0.00000000000000E+00   6.87166247461186E-10  -2.49992345684416E-35
      6.87166247461186E-10   5.20974725506814E-18
      1.37757077255497E-01
      0.00000000000000E+00   1.31853409191283E-10   0.00000000000000E+00   0.00000000000000E+00  -7.28689562838690E-10
     -2.13580925927055E-35  -7.28689562838690E-10   6.61497450040972E-18   0.00000000000000E+00   0.00000000000000E+00
      0.00000000000000E+00   0.00000000000000E+00   0.00000000000000E+00   0.00000000000000E+00   0.00000000000000E+00
      3.85852792496243E-18   0.00000000000000E+00   0.00000000000000E+00   0.00000000000000E+00   0.00000000000000E+00
      3.75746464687098E-17   3.54915543150595E-35   3.75746464687098E-17  -1.56896201139446E-17   6.88785386277483E-03
      6.88785373086970E-03   0.00000000000000E+00   0.00000000000000E+00   7.28689525264044E-10  -1.41334617223540E-35
      7.28689525264044E-10   5.21611768857245E-18
      1.47757077255497E-01
      0.00000000000000E+00   1.39090108840823E-10   0.00000000000000E+00   0.00000000000000E+00  -7.68671857194836E-10
     -3.27521913723121E-35  -7.68671857194836E-10   6.61470119798558E-18   0.00000000000000E+00   0.00000000000000E+00
      0.00000000000000E+00   0.00000000000000E+00   0.00000000000000E+00   0.00000000000000E+00   0.00000000000000E+00
      3.85235825724074E-18   0.00000000000000E+00   0.00000000000000E+00   0.00000000000000E+00   0.00000000000000E+00
      3.73906658048656E-17   3.01974383718308E-35   3.73906658048656E-17  -1.56895485798289E-17   7.38785386277483E-03
      7.38785372363057E-03   0.00000000000000E+00   0.00000000000000E+00   7.68671819804171E-10   2.55475300048133E-36
      7.68671819804171E-10   5.22248912460254E-18
      1.57757077255497E-01
      0.00000000000000E+00   1.46056824855131E-10   0.00000000000000E+00   0.00000000000000E+00  -8.07161223075430E-10
     -4.04224694919037E-35  -8.07161223075430E-10   6.61442791048693E-18   0.00000000000000E+00   0.00000000000000E+00
      0.00000000000000E+00   0.00000000000000E+00   0.00000000000000E+00   0.00000000000000E+00   0.00000000000000E+00
      3.84618929620953E-18   0.00000000000000E+00   0.00000000000000E+00   0.00000000000000E+00   0.00000000000000E+00
      6.49805221404416E-17   5.79146999363880E-35   6.49805221404416E-17  -1.56894787642525E-17   7.88785386277484E-03
      7.88785371666156E-03   0.00000000000000E+00   0.00000000000000E+00   8.07161158094908E-10  -1.74922304444843E-35
      8.07161158094908E-10   5.22886155755605E-18
      1.67757077255497E-01
      0.00000000000000E+00   1.52762084415036E-10   0.00000000000000E+00   0.00000000000000E+00  -8.44204962224347E-10
     -4.84048020831273E-35  -8.44204962224347E-10   6.61415463777083E-18   0.00000000000000E+00   0.00000000000000E+00
      0.00000000000000E+00   0.00000000000000E+00   0.00000000000000E+00   0.00000000000000E+00   0.00000000000000E+00
      3.84002103564983E-18   0.00000000000000E+00   0.00000000000000E+00   0.00000000000000E+00   0.00000000000000E+00
      3.65562761961817E-17   4.92386585841282E-35   3.65562761961817E-17  -1.56894106552543E-17   8.38785386277484E-03
      8.38785370995413E-03   0.00000000000000E+00   0.00000000000000E+00   8.44204925668071E-10  -8.33856501000799E-37
      8.44204925668071E-10   5.23523498183367E-18
      1.77757077255497E-01
      0.00000000000000E+00   1.59214269976327E-10   0.00000000000000E+00   0.00000000000000E+00  -8.79849560276825E-10
     -2.89164994500346E-35  -8.79849560276825E-10   6.61388137969478E-18   0.00000000000000E+00   0.00000000000000E+00
      0.00000000000000E+00   0.00000000000000E+00   0.00000000000000E+00   0.00000000000000E+00   0.00000000000000E+00
      3.83385346942630E-18   0.00000000000000E+00   0.00000000000000E+00   0.00000000000000E+00   0.00000000000000E+00
      1.86403037623238E-17   5.94717439150435E-35   1.86403037623238E-17  -1.56893442410041E-17   8.88785386277484E-03
      8.88785370349988E-03   0.00000000000000E+00   0.00000000000000E+00   8.79849541636521E-10  -3.05552444650089E-35
      8.79849541636521E-10   5.24160939188304E-18
      1.87757077255497E-01
      0.00000000000000E+00   1.65421563606273E-10   0.00000000000000E+00   0.00000000000000E+00  -9.14140280909105E-10
     -5.47026035930776E-35  -9.14140280909105E-10   6.61360813611845E-18   0.00000000000000E+00   0.00000000000000E+00
      0.00000000000000E+00   0.00000000000000E+00   0.00000000000000E+00   0.00000000000000E+00   0.00000000000000E+00
      3.82768659153815E-18   0.00000000000000E+00   0.00000000000000E+00   0.00000000000000E+00   0.00000000000000E+00
      3.44233358132520E-17   6.90947907573878E-35   3.44233358132520E-17  -1.56892795098746E-17   9.38785386277484E-03
      9.38785369729062E-03   0.00000000000000E+00   0.00000000000000E+00   9.14140246485769E-10  -1.43921871643102E-35
      9.14140246485769E-10   5.24798478221804E-18
      1.97757077255497E-01
      0.00000000000000E+00   1.71391980381716E-10   0.00000000000000E+00   0.00000000000000E+00  -9.47121616693579E-10