DF-ISE text

Info {
  version   = 1.0
  type      = xyplot
  datasets  = [
    "time"
    "source OuterVoltage" "source InnerVoltage" "source QuasiFermiPotential" "source DisplacementCurrent" "source eCurrent"
    "source hCurrent" "source TotalCurrent" "source Charge" "gate OuterVoltage" "gate InnerVoltage"
    "gate QuasiFermiPotential" "gate DisplacementCurrent" "gate eCurrent" "gate hCurrent" "gate TotalCurrent"
    "gate Charge" "substrate OuterVoltage" "substrate InnerVoltage" "substrate QuasiFermiPotential" "substrate DisplacementCurrent"
    "substrate eCurrent" "substrate hCurrent" "substrate TotalCurrent" "substrate Charge" "drain OuterVoltage"
    "drain InnerVoltage" "drain QuasiFermiPotential" "drain DisplacementCurrent" "drain eCurrent" "drain hCurrent"
    "drain TotalCurrent" "drain Charge" ]
  functions = [
    Time
    OuterVoltage InnerVoltage QuasiFermiPotential DisplacementCurrent eCurrent
    hCurrent TotalCurrent Charge OuterVoltage InnerVoltage
    QuasiFermiPotential DisplacementCurrent eCurrent hCurrent TotalCurrent
    Charge OuterVoltage InnerVoltage QuasiFermiPotential DisplacementCurrent
    eCurrent hCurrent TotalCurrent Charge OuterVoltage
    InnerVoltage QuasiFermiPotential DisplacementCurrent eCurrent hCurrent
    TotalCurrent Charge ]
}

Data {
      0.00000000000000E+00
      0.00000000000000E+00   0.00000000000000E+00   0.00000000000000E+00   0.00000000000000E+00  -2.53469699230263E-21
      3.02187608716743E-34  -2.53469699230233E-21   5.54920440084103E-18   0.00000000000000E+00   0.00000000000000E+00
      0.00000000000000E+00   0.00000000000000E+00   0.00000000000000E+00   0.00000000000000E+00   0.00000000000000E+00
      2.02591854115498E-18   0.00000000000000E+00   0.00000000000000E+00   0.00000000000000E+00   0.00000000000000E+00
      3.61066574327378E-20  -5.76714762686922E-34   3.61066574327372E-20  -1.34640951240178E-17   0.00000000000000E+00
      0.00000000000000E+00   0.00000000000000E+00   0.00000000000000E+00  -3.35719604404352E-20   2.74527153970179E-34
     -3.35719604404349E-20   5.88897218202173E-18
      0.00000000000000E+00
      0.00000000000000E+00   1.80974851640447E-18   0.00000000000000E+00   0.00000000000000E+00  -3.26047001945045E-19
      3.50566509711169E-34  -3.26047001945044E-19   5.54462521824448E-18   0.00000000000000E+00   0.00000000000000E+00
      0.00000000000000E+00   0.00000000000000E+00   0.00000000000000E+00   0.00000000000000E+00   0.00000000000000E+00
      2.01856165576531E-18   0.00000000000000E+00   0.00000000000000E+00   0.00000000000000E+00   0.00000000000000E+00
      3.66231172423457E-19  -6.27408582282977E-34   3.66231172423456E-19  -1.34479971966355E-17   0.00000000000000E+00
     -3.61949703280894E-18   0.00000000000000E+00   0.00000000000000E+00  -4.01841704784116E-20   2.76842072571808E-34
     -4.01841704784114E-20   5.88481032262575E-18
      1.00000000000000E-03
      0.00000000000000E+00   1.52337707822853E-11   0.00000000000000E+00   0.00000000000000E+00  -8.50666241433243E-11
      2.92981148159697E-34  -8.50666241433243E-11   5.54425875383898E-18   0.00000000000000E+00   0.00000000000000E+00
      0.00000000000000E+00   0.00000000000000E+00   0.00000000000000E+00   0.00000000000000E+00   0.00000000000000E+00
      2.01265485388824E-18   0.00000000000000E+00   0.00000000000000E+00   0.00000000000000E+00   0.00000000000000E+00
      1.14086576707926E-19  -5.68844385624197E-34   1.14086576707926E-19  -1.34477894713838E-17   4.30000000000000E-04
      4.29999984681089E-04   0.00000000000000E+00   0.00000000000000E+00   8.50666240292377E-11   2.75863237464500E-34
      8.50666240292377E-11   5.89087586365656E-18
      2.08666666666667E-03
      0.00000000000000E+00   3.12925099965280E-11   0.00000000000000E+00   0.00000000000000E+00  -1.74739256804348E-10
      3.41185960400538E-34  -1.74739256804348E-10   5.54386055431335E-18   0.00000000000000E+00   0.00000000000000E+00
      0.00000000000000E+00   0.00000000000000E+00   0.00000000000000E+00   0.00000000000000E+00   0.00000000000000E+00
      2.00623674395570E-18   0.00000000000000E+00   0.00000000000000E+00   0.00000000000000E+00   0.00000000000000E+00
      9.42538960361099E-17  -6.13486727239051E-34   9.42538960361099E-17  -1.34475652109236E-17   8.97266666666667E-04
      8.97266635199362E-04   0.00000000000000E+00   0.00000000000000E+00   1.74739162550452E-10   2.72300766838513E-34
      1.74739162550452E-10   5.89746791265455E-18
      3.28200000000000E-03
      0.00000000000000E+00   4.83512085608991E-11   0.00000000000000E+00   0.00000000000000E+00  -2.69993897900486E-10
      3.21614403979903E-34  -2.69993897900486E-10   5.54342256501205E-18   0.00000000000000E+00   0.00000000000000E+00
      0.00000000000000E+00   0.00000000000000E+00   0.00000000000000E+00   0.00000000000000E+00   0.00000000000000E+00
      1.99917755742778E-18   0.00000000000000E+00   0.00000000000000E+00   0.00000000000000E+00   0.00000000000000E+00
      1.37980368099778E-16  -5.85823490730264E-34   1.37980368099778E-16  -1.34473202796727E-17   1.41126000000000E-03
      1.41125995137899E-03   0.00000000000000E+00   0.00000000000000E+00   2.69993759920118E-10   2.64209086750362E-34
      2.69993759920118E-10   5.90472015723293E-18
      4.59686666666667E-03
      0.00000000000000E+00   6.63881716626211E-11   0.00000000000000E+00   0.00000000000000E+00  -3.70709102812880E-10
      3.35230946256888E-34  -3.70709102812880E-10   5.54294081311162E-18   0.00000000000000E+00   0.00000000000000E+00
      0.00000000000000E+00   0.00000000000000E+00   0.00000000000000E+00   0.00000000000000E+00   0.00000000000000E+00
      1.99141333413970E-18   0.00000000000000E+00   0.00000000000000E+00   0.00000000000000E+00   0.00000000000000E+00
      2.09610649017629E-16  -6.00261099359463E-34   2.09610649017629E-16  -1.34470529656803E-17   1.97665266666667E-03
      1.97665259990842E-03   0.00000000000000E+00   0.00000000000000E+00   3.70708893202231E-10   2.65030153102576E-34
      3.70708893202231E-10   5.91269881842900E-18
      6.04322000000000E-03
      0.00000000000000E+00   8.53655248847425E-11   0.00000000000000E+00   0.00000000000000E+00  -4.76672789367446E-10
      3.24215896135336E-34  -4.76672789367446E-10   5.54241092968008E-18   0.00000000000000E+00   0.00000000000000E+00
      0.00000000000000E+00   0.00000000000000E+00   0.00000000000000E+00   0.00000000000000E+00   0.00000000000000E+00
      1.98287374679561E-18   0.00000000000000E+00   0.00000000000000E+00   0.00000000000000E+00   0.00000000000000E+00
      2.99425980987024E-16  -5.73145682258731E-34   2.99425980987024E-16  -1.34467614561245E-17   2.59858460000000E-03
      2.59858451415910E-03   0.00000000000000E+00   0.00000000000000E+00   4.76672489941464E-10   2.48929786123395E-34
      4.76672489941464E-10   5.92147677964882E-18
      7.63420866666667E-03
      0.00000000000000E+00   1.05225471193769E-10   0.00000000000000E+00   0.00000000000000E+00  -5.87561698066398E-10
      3.11544528066972E-34  -5.87561698066398E-10   5.54182811028742E-18   0.00000000000000E+00   0.00000000000000E+00
      0.00000000000000E+00   0.00000000000000E+00   0.00000000000000E+00   0.00000000000000E+00   0.00000000000000E+00
      1.97348146960746E-18   0.00000000000000E+00   0.00000000000000E+00   0.00000000000000E+00   0.00000000000000E+00
      4.34414172451041E-16  -5.58786739757785E-34   4.34414172451041E-16  -1.34464438405731E-17   3.28270972666667E-03
      3.28270962085584E-03   0.00000000000000E+00   0.00000000000000E+00   5.87561263652226E-10   2.47242211690813E-34
      5.87561263652226E-10   5.93113426067825E-18
      9.38429620000000E-03
      0.00000000000000E+00   1.25887185863648E-10   0.00000000000000E+00   0.00000000000000E+00  -7.02924027791764E-10
      3.09309005716682E-34  -7.02924027791764E-10   5.54118707171146E-18   0.00000000000000E+00   0.00000000000000E+00
      0.00000000000000E+00   0.00000000000000E+00   0.00000000000000E+00   0.00000000000000E+00   0.00000000000000E+00
      1.96315148482991E-18   0.00000000000000E+00   0.00000000000000E+00   0.00000000000000E+00   0.00000000000000E+00
      6.40487841224582E-16  -5.46962028790627E-34   6.40487841224582E-16  -1.34460981171165E-17   4.03524736600000E-03
      4.03524723941332E-03   0.00000000000000E+00   0.00000000000000E+00   7.02923387303922E-10   2.37653023073945E-34
      7.02923387303922E-10   5.94175956057510E-18
      1.13093924866667E-02
      0.00000000000000E+00   1.47244233059756E-10   0.00000000000000E+00   0.00000000000000E+00  -8.22164210402313E-10
      3.06143390848619E-34  -8.22164210402313E-10   5.54048200434485E-18   0.00000000000000E+00   0.00000000000000E+00
      0.00000000000000E+00   0.00000000000000E+00   0.00000000000000E+00   0.00000000000000E+00   0.00000000000000E+00
      1.95179032083272E-18   0.00000000000000E+00   0.00000000000000E+00   0.00000000000000E+00   0.00000000000000E+00
     -1.01219343997985E-19  -5.40144098941453E-34  -1.01219343997986E-19  -1.34457222016059E-17   4.86303876926667E-03
      4.86303862120543E-03   0.00000000000000E+00   0.00000000000000E+00   8.22164210503532E-10   2.34000708092833E-34
      8.22164210503532E-10   5.95344987642827E-18
      1.34141644267556E-02
      0.00000000000000E+00   1.69034417321913E-10   0.00000000000000E+00   0.00000000000000E+00  -9.43819768161185E-10
      3.23819076585445E-34  -9.43819768161185E-10   5.53971121951591E-18   0.00000000000000E+00   0.00000000000000E+00
      0.00000000000000E+00   0.00000000000000E+00   0.00000000000000E+00   0.00000000000000E+00   0.00000000000000E+00
      1.93937093646069E-18   0.00000000000000E+00   0.00000000000000E+00   0.00000000000000E+00   0.00000000000000E+00
      1.18623184345384E-18  -5.43287997791542E-34   1.18623184345384E-18  -1.34453163990997E-17   5.76809070350489E-03
      5.76809053353373E-03   0.00000000000000E+00   0.00000000000000E+00   9.43819766974953E-10   2.19468921206096E-34
      9.43819766974953E-10   5.96623424312303E-18
      1.57153817479194E-02
      0.00000000000000E+00   1.91101949616143E-10   0.00000000000000E+00   0.00000000000000E+00  -1.06702014135297E-09
      2.93525158992789E-34  -1.06702014135297E-09   5.53886859939507E-18   0.00000000000000E+00   0.00000000000000E+00
      0.00000000000000E+00   0.00000000000000E+00   0.00000000000000E+00   0.00000000000000E+00   0.00000000000000E+00
      1.92579495173559E-18   0.00000000000000E+00   0.00000000000000E+00   0.00000000000000E+00   0.00000000000000E+00
     -3.24383614506416E-19  -4.94619125375690E-34  -3.24383614506417E-19  -1.34448788673170E-17   6.75761415160535E-03
      6.75761395944578E-03   0.00000000000000E+00   0.00000000000000E+00   1.06702014167736E-09   2.01093966382900E-34
      1.06702014167736E-09   5.98021531618624E-18
      1.82313793523919E-02
      0.00000000000000E+00   2.13268071580300E-10   0.00000000000000E+00   0.00000000000000E+00  -1.19076773692040E-09
      3.22286023025745E-34  -1.19076773692040E-09   5.53794745775271E-18   0.00000000000000E+00   0.00000000000000E+00
      0.00000000000000E+00   0.00000000000000E+00   0.00000000000000E+00   0.00000000000000E+00   0.00000000000000E+00
      1.91095487057262E-18   0.00000000000000E+00   0.00000000000000E+00   0.00000000000000E+00   0.00000000000000E+00
     -7.10233541646428E-19  -5.29928104717958E-34  -7.10233541646428E-19  -1.34444077573283E-17   7.83949312152852E-03
      7.83949290708186E-03   0.00000000000000E+00   0.00000000000000E+00   1.19076773763063E-09   2.07642081692213E-34
      1.19076773763063E-09   5.99550542900300E-18
      2.09822033999485E-02
      0.00000000000000E+00   2.35332706919592E-10   0.00000000000000E+00   0.00000000000000E+00  -1.31394640728182E-09
      3.26056376423224E-34  -1.31394640728182E-09   5.53694048728178E-18   0.00000000000000E+00   0.00000000000000E+00
      0.00000000000000E+00   0.00000000000000E+00   0.00000000000000E+00   0.00000000000000E+00   0.00000000000000E+00
      1.89473324044766E-18   0.00000000000000E+00   0.00000000000000E+00   0.00000000000000E+00   0.00000000000000E+00
     -1.22901573223040E-18  -5.31530540516452E-34  -1.22901573223040E-18  -1.34439012400198E-17   9.02234746197784E-03
      9.02234722534674E-03   0.00000000000000E+00   0.00000000000000E+00   1.31394640851084E-09   2.05474164093228E-34
      1.31394640851084E-09   6.01222751229032E-18
      2.39897710252770E-02
      0.00000000000000E+00   2.57078406205904E-10   0.00000000000000E+00   0.00000000000000E+00  -1.43534351566307E-09
      3.08689671987182E-34  -1.43534351566307E-09   5.53583970201319E-18   0.00000000000000E+00   0.00000000000000E+00
      0.00000000000000E+00   0.00000000000000E+00   0.00000000000000E+00   0.00000000000000E+00   0.00000000000000E+00
      1.87700173340736E-18   0.00000000000000E+00   0.00000000000000E+00   0.00000000000000E+00   0.00000000000000E+00
      1.27316702969758E-19  -4.97268359193781E-34   1.27316702969758E-19  -1.34433575368674E-17   1.03156015408691E-02
      1.03156012823748E-02   0.00000000000000E+00   0.00000000000000E+00   1.43534351553576E-09   1.88578687206599E-34
      1.43534351553576E-09   6.03051610144685E-18
      2.72780449623029E-02
      0.00000000000000E+00   2.78275018743597E-10   0.00000000000000E+00   0.00000000000000E+00  -1.55367614788655E-09
      2.72221441329147E-34  -1.55367614788655E-09   5.53463637438680E-18   0.00000000000000E+00   0.00000000000000E+00
      0.00000000000000E+00   0.00000000000000E+00   0.00000000000000E+00   0.00000000000000E+00   0.00000000000000E+00
      1.85762014413752E-18   0.00000000000000E+00   0.00000000000000E+00   0.00000000000000E+00   0.00000000000000E+00
     -9.22192459112985E-19  -4.42564041824644E-34  -9.22192459112985E-19  -1.34427749592680E-17   1.17295593337902E-02
      1.17295590539854E-02   0.00000000000000E+00   0.00000000000000E+00   1.55367614880874E-09   1.70342600495497E-34
      1.55367614880874E-09   6.05051844074369E-18
      3.08732244667845E-02
      0.00000000000000E+00   2.98686514416537E-10   0.00000000000000E+00   0.00000000000000E+00  -1.66762946783773E-09
      3.19711672264051E-34  -1.66762946783773E-09   5.53332096651413E-18   0.00000000000000E+00   0.00000000000000E+00
      0.00000000000000E+00   0.00000000000000E+00   0.00000000000000E+00   0.00000000000000E+00   0.00000000000000E+00
      1.83643529576542E-18   0.00000000000000E+00   0.00000000000000E+00   0.00000000000000E+00   0.00000000000000E+00
      1.59136600461993E-19  -4.99756315229201E-34   1.59136600461993E-19  -1.34421519560219E-17   1.32754865207173E-02
      1.32754862203922E-02   0.00000000000000E+00   0.00000000000000E+00   1.66762946767859E-09   1.80044642965150E-34
      1.66762946767859E-09   6.07239569374235E-18
      3.48039540583510E-02
      0.00000000000000E+00   3.18080197117797E-10   0.00000000000000E+00   0.00000000000000E+00  -1.77590822878786E-09
      3.42891882853953E-34  -1.77590822878786E-09   5.53188305501648E-18   0.00000000000000E+00   0.00000000000000E+00
      0.00000000000000E+00   0.00000000000000E+00   0.00000000000000E+00   0.00000000000000E+00   0.00000000000000E+00
      1.81327984439677E-18   0.00000000000000E+00   0.00000000000000E+00   0.00000000000000E+00   0.00000000000000E+00
     -1.43773175301268E-18  -4.97629147825025E-34  -1.43773175301268E-18  -1.34414871690509E-17   1.49657002450909E-02
      1.49656999252698E-02   0.00000000000000E+00   0.00000000000000E+00   1.77590823022559E-09   1.54737264971072E-34
      1.77590823022559E-09   6.09632426963757E-18
      3.91015517451304E-02
      0.00000000000000E+00   3.36238615609515E-10   0.00000000000000E+00   0.00000000000000E+00  -1.87730307661560E-09
      3.06501203927381E-34  -1.87730307661560E-09   5.53031124880293E-18   0.00000000000000E+00   0.00000000000000E+00
      0.00000000000000E+00   0.00000000000000E+00   0.00000000000000E+00   0.00000000000000E+00   0.00000000000000E+00
      1.78797097156155E-18   0.00000000000000E+00   0.00000000000000E+00   0.00000000000000E+00   0.00000000000000E+00
     -9.11090854143264E-19  -4.56752098129691E-34  -9.11090854143264E-19  -1.34407794965050E-17   1.68136672504061E-02
      1.68136669123319E-02   0.00000000000000E+00   0.00000000000000E+00   1.87730307752670E-09   1.50250894202310E-34
      1.87730307752670E-09   6.12249727614055E-18
      4.38002585493426E-02
      0.00000000000000E+00   3.52972336275484E-10   0.00000000000000E+00   0.00000000000000E+00  -1.97076245015588E-09
      3.34773358581411E-34  -1.97076245015588E-09   5.52859309921615E-18   0.00000000000000E+00   0.00000000000000E+00
      0.00000000000000E+00   0.00000000000000E+00   0.00000000000000E+00   0.00000000000000E+00   0.00000000000000E+00
      1.76030895849321E-18   0.00000000000000E+00   0.00000000000000E+00   0.00000000000000E+00   0.00000000000000E+00
      3.30041101062566E-18  -4.74658033788689E-34   3.30041101062566E-18  -1.34400281702255E-17   1.88341111762173E-02
      1.88341108213237E-02   0.00000000000000E+00   0.00000000000000E+00   1.97076244685546E-09   1.39884675207278E-34
      1.97076244685546E-09   6.15112611251614E-18
      4.89375113219479E-02
      0.00000000000000E+00   3.68135617805492E-10   0.00000000000000E+00   0.00000000000000E+00  -2.05547966226934E-09
      3.20702790225086E-34  -2.05547966226934E-09   5.52671500171701E-18   0.00000000000000E+00   0.00000000000000E+00
      0.00000000000000E+00   0.00000000000000E+00   0.00000000000000E+00   0.00000000000000E+00   0.00000000000000E+00
      1.73007562565922E-18   0.00000000000000E+00   0.00000000000000E+00   0.00000000000000E+00   0.00000000000000E+00
     -2.64708471200361E-19  -4.48777037441940E-34  -2.64708471200361E-19  -1.34392328417518E-17   2.10431298684376E-02
      2.10431294983049E-02   0.00000000000000E+00   0.00000000000000E+00   2.05547966253405E-09   1.28074247216854E-34
      2.05547966253405E-09   6.18244221437554E-18
      5.45542410199964E-02
      0.00000000000000E+00   3.81642388107663E-10   0.00000000000000E+00   0.00000000000000E+00  -2.13098233726292E-09
      3.12195212304416E-34  -2.13098233726292E-09   5.52466208833389E-18   0.00000000000000E+00   0.00000000000000E+00
      0.00000000000000E+00   0.00000000000000E+00   0.00000000000000E+00   0.00000000000000E+00   0.00000000000000E+00
      1.69703262780815E-18   0.00000000000000E+00   0.00000000000000E+00   0.00000000000000E+00   0.00000000000000E+00
     -4.28116731620766E-19  -4.26929065167902E-34  -4.28116731620766E-19  -1.34383936813058E-17   2.34583236385985E-02
      2.34583232548939E-02   0.00000000000000E+00   0.00000000000000E+00   2.13098233769104E-09   1.14733852863486E-34
      2.13098233769104E-09   6.21669896516375E-18
      6.06951988231961E-02
      0.00000000000000E+00   3.93482742428366E-10   0.00000000000000E+00   0.00000000000000E+00  -2.19722421185413E-09
      3.20149644431842E-34  -2.19722421185413E-09   5.52241810994193E-18   0.00000000000000E+00   0.00000000000000E+00
      0.00000000000000E+00   0.00000000000000E+00   0.00000000000000E+00   0.00000000000000E+00   0.00000000000000E+00
      1.66091958749537E-18   0.00000000000000E+00   0.00000000000000E+00   0.00000000000000E+00   0.00000000000000E+00
     -1.67014604828867E-18  -4.25631310423392E-34  -1.67014604828868E-18  -1.34375114864289E-17   2.60989354939743E-02
      2.60989350983753E-02   0.00000000000000E+00   0.00000000000000E+00   2.19722421352428E-09   1.05481665991550E-34
      2.19722421352428E-09   6.25417378899161E-18
      6.74093126880277E-02
      0.00000000000000E+00   4.03736666675217E-10   0.00000000000000E+00   0.00000000000000E+00  -2.25466152859179E-09
      3.43281513444707E-34  -2.25466152859179E-09   5.51996530741018E-18   0.00000000000000E+00   0.00000000000000E+00
      0.00000000000000E+00   0.00000000000000E+00   0.00000000000000E+00   0.00000000000000E+00   0.00000000000000E+00
      1.62145205291209E-18   0.00000000000000E+00   0.00000000000000E+00   0.00000000000000E+00   0.00000000000000E+00
     -1.81626485472014E-18  -4.34450790052849E-34  -1.81626485472014E-18  -1.34365878024351E-17   2.89860044558519E-02
      2.89860040499564E-02   0.00000000000000E+00   0.00000000000000E+00   2.25466153040805E-09   9.11692766081423E-35
      2.25466153040805E-09   6.29517044211288E-18
      7.47500771802437E-02
      0.00000000000000E+00   4.12582661321198E-10   0.00000000000000E+00   0.00000000000000E+00  -2.30430075204942E-09
      2.93074627318758E-34  -2.30430075204942E-09   5.51728427066660E-18   0.00000000000000E+00   0.00000000000000E+00
      0.00000000000000E+00   0.00000000000000E+00   0.00000000000000E+00   0.00000000000000E+00   0.00000000000000E+00
      1.57831926354907E-18   0.00000000000000E+00   0.00000000000000E+00   0.00000000000000E+00   0.00000000000000E+00
     -1.21897444908748E-18  -3.78130395021505E-34  -1.21897444908748E-18  -1.34356250554834E-17   3.21425331875048E-02
      3.21425327727316E-02   0.00000000000000E+00   0.00000000000000E+00   2.30430075326839E-09   8.50557677027473E-35
      2.30430075326839E-09   6.34002152126777E-18
      8.27759796917331E-02
      0.00000000000000E+00   4.20298297449887E-10   0.00000000000000E+00   0.00000000000000E+00  -2.34770109201605E-09
      3.05760812234040E-34  -2.34770109201605E-09   5.51435378441593E-18   0.00000000000000E+00   0.00000000000000E+00
      0.00000000000000E+00   0.00000000000000E+00   0.00000000000000E+00   0.00000000000000E+00   0.00000000000000E+00
      1.53118170155549E-18   0.00000000000000E+00   0.00000000000000E+00   0.00000000000000E+00   0.00000000000000E+00
     -1.00019446122468E-19  -3.77160881562061E-34  -1.00019446122468E-19  -1.34346266924902E-17   3.55936712674452E-02
      3.55936708449354E-02   0.00000000000000E+00   0.00000000000000E+00   2.34770109211607E-09   7.14000693280209E-35
      2.34770109211607E-09   6.38909120651874E-18
      9.15509664376282E-02
      0.00000000000000E+00   4.27248073795349E-10   0.00000000000000E+00   0.00000000000000E+00  -2.38690705493111E-09
      3.65063867545460E-34  -2.38690705493111E-09   5.51115065975271E-18   0.00000000000000E+00   0.00000000000000E+00
      0.00000000000000E+00   0.00000000000000E+00   0.00000000000000E+00   0.00000000000000E+00   0.00000000000000E+00
      1.47966841442541E-18   0.00000000000000E+00   0.00000000000000E+00   0.00000000000000E+00   0.00000000000000E+00
     -1.83538714086273E-18  -4.34832452070770E-34  -1.83538714086273E-18  -1.34335973356900E-17   3.93669155681801E-02
      3.93669151387095E-02   0.00000000000000E+00   0.00000000000000E+00   2.38690705676650E-09   6.97685845253102E-35
      2.38690705676650E-09   6.44277826151192E-18
      1.01144951946474E-01
      0.00000000000000E+00   4.33852777699758E-10   0.00000000000000E+00   0.00000000000000E+00  -2.42427559292323E-09
      3.29014381216325E-34  -2.42427559292323E-09   5.50764955073610E-18   0.00000000000000E+00   0.00000000000000E+00
      0.00000000000000E+00   0.00000000000000E+00   0.00000000000000E+00   0.00000000000000E+00   0.00000000000000E+00
      1.42337408640916E-18   0.00000000000000E+00   0.00000000000000E+00   0.00000000000000E+00   0.00000000000000E+00
     -1.67451476374502E-17  -3.79458377098669E-34  -1.67451476374502E-17  -1.34325429481404E-17   4.34923293369836E-02
      4.34923289009066E-02   0.00000000000000E+00   0.00000000000000E+00   2.42427560966838E-09   5.04439958823430E-35
      2.42427560966838E-09   6.50151931099518E-18
      1.11144951946474E-01
      0.00000000000000E+00   4.40228921677473E-10   0.00000000000000E+00   0.00000000000000E+00  -2.46043468868908E-09
      2.82867436631230E-34  -2.46043468868908E-09   5.50400128461645E-18   0.00000000000000E+00   0.00000000000000E+00
      0.00000000000000E+00   0.00000000000000E+00   0.00000000000000E+00   0.00000000000000E+00   0.00000000000000E+00
      1.36472553697802E-18   0.00000000000000E+00   0.00000000000000E+00   0.00000000000000E+00   0.00000000000000E+00
     -3.56875070462561E-17  -3.27988679033754E-34  -3.56875070462561E-17  -1.34315192154842E-17   4.77923293369836E-02
      4.77923288945372E-02   0.00000000000000E+00   0.00000000000000E+00   2.46043472437659E-09   4.51212424025247E-35
      2.46043472437659E-09   6.56279239388969E-18
      1.21144951946473E-01
      0.00000000000000E+00   4.46444665381994E-10   0.00000000000000E+00   0.00000000000000E+00  -2.49573199033573E-09
      2.89336972070657E-34  -2.49573199033573E-09   5.50035397963797E-18   0.00000000000000E+00   0.00000000000000E+00
      0.00000000000000E+00   0.00000000000000E+00   0.00000000000000E+00   0.00000000000000E+00   0.00000000000000E+00
      1.30610401550570E-18   0.00000000000000E+00   0.00000000000000E+00   0.00000000000000E+00   0.00000000000000E+00
     -5.06960226268975E-17  -3.31208565676817E-34  -5.06960226268975E-17  -1.34305686209038E-17   5.20923293369836E-02
      5.20923288883343E-02   0.00000000000000E+00   0.00000000000000E+00   2.49573204103175E-09   4.18715936061599E-35
      2.49573204103175E-09   6.62411062576015E-18
      1.31144951946473E-01
      0.00000000000000E+00   4.52681149256949E-10   0.00000000000000E+00   0.00000000000000E+00  -2.53117033716165E-09
      3.07185608272563E-34  -2.53117033716165E-09   5.49670757550641E-18   0.00000000000000E+00   0.00000000000000E+00
      0.00000000000000E+00   0.00000000000000E+00   0.00000000000000E+00   0.00000000000000E+00   0.00000000000000E+00
      1.24750796819621E-18   0.00000000000000E+00   0.00000000000000E+00   0.00000000000000E+00   0.00000000000000E+00
     -1.71541695969141E-16  -3.45723646765293E-34  -1.71541695969141E-16  -1.34296876772457E-17   5.63923293369836E-02
      5.63923288821152E-02   0.00000000000000E+00   0.00000000000000E+00   2.53117050870334E-09   3.85380384927303E-35
      2.53117050870334E-09   6.68547213354309E-18
      1.41144951946474E-01
      0.00000000000000E+00   4.59020068969868E-10   0.00000000000000E+00   0.00000000000000E+00  -2.56720215558031E-09
      3.18934486894605E-34  -2.56720215558031E-09   5.49306202011002E-18   0.00000000000000E+00   0.00000000000000E+00
      0.00000000000000E+00   0.00000000000000E+00   0.00000000000000E+00   0.00000000000000E+00   0.00000000000000E+00
      1.18893601104845E-18   0.00000000000000E+00   0.00000000000000E+00   0.00000000000000E+00   0.00000000000000E+00
     -4.92012208462378E-17  -3.49427898454840E-34  -4.92012208462378E-17  -1.34288731664032E-17   6.06923293369836E-02
      6.06923288757999E-02   0.00000000000000E+00   0.00000000000000E+00   2.56720220478153E-09   3.04934115602347E-35
      2.56720220478153E-09   6.74687513524473E-18
      1.51144951946474E-01
      0.00000000000000E+00   4.65487067299914E-10   0.00000000000000E+00   0.00000000000000E+00  -2.60397085846835E-09
      3.24582364369360E-34  -2.60397085846835E-09   5.48941726909190E-18   0.00000000000000E+00   0.00000000000000E+00
      0.00000000000000E+00   0.00000000000000E+00   0.00000000000000E+00   0.00000000000000E+00   0.00000000000000E+00
      1.13038689546633E-18   0.00000000000000E+00   0.00000000000000E+00   0.00000000000000E+00   0.00000000000000E+00
     -5.46765696356787E-17  -3.49936438881651E-34  -5.46765696356787E-17  -1.34281220955125E-17   6.49923293369836E-02
      6.49923288693603E-02   0.00000000000000E+00   0.00000000000000E+00   2.60397091314492E-09   2.53540745122903E-35
      2.60397091314492E-09   6.80831793095428E-18
      1.61144951946474E-01
      0.00000000000000E+00   4.72074698941694E-10   0.00000000000000E+00   0.00000000000000E+00  -2.64143230097912E-09
      3.22063113566129E-34  -2.64143230097912E-09   5.48577328561118E-18   0.00000000000000E+00   0.00000000000000E+00
      0.00000000000000E+00   0.00000000000000E+00   0.00000000000000E+00   0.00000000000000E+00   0.00000000000000E+00
      1.07185952267190E-18   0.00000000000000E+00   0.00000000000000E+00   0.00000000000000E+00   0.00000000000000E+00
     -4.94496840889853E-17  -3.43900897899135E-34  -4.94496840889853E-17  -1.34274317120509E-17   6.92923293369836E-02
      6.92923288628028E-02   0.00000000000000E+00   0.00000000000000E+00   2.64143235042881E-09   2.18377843330062E-35
      2.64143235042881E-09   6.86979890376786E-18
      1.71144951946474E-01
      0.00000000000000E+00   4.78760884510868E-10   0.00000000000000E+00   0.00000000000000E+00  -2.67946031946233E-09
      3.23170186379813E-34  -2.67946031946233E-09   5.48213003847051E-18   0.00000000000000E+00   0.00000000000000E+00
      0.00000000000000E+00   0.00000000000000E+00   0.00000000000000E+00   0.00000000000000E+00   0.00000000000000E+00
      1.01335292554104E-18   0.00000000000000E+00   0.00000000000000E+00   0.00000000000000E+00   0.00000000000000E+00
     -3.26154529172649E-17  -3.42069033313985E-34  -3.26154529172649E-17  -1.34267994791830E-17   7.35923293369836E-02
      7.35923288561478E-02   0.00000000000000E+00   0.00000000000000E+00   2.67946035207778E-09   1.88988469341717E-35
      2.67946035207778E-09   6.93131651517144E-18
      1.81144951946474E-01
      0.00000000000000E+00   4.85523862686402E-10   0.00000000000000E+00   0.00000000000000E+00  -2.71793236960229E-09
      2.89366206495009E-34  -2.71793236960229E-09   5.47848749964132E-18   0.00000000000000E+00   0.00000000000000E+00
      0.00000000000000E+00   0.00000000000000E+00   0.00000000000000E+00   0.00000000000000E+00   0.00000000000000E+00
      9.54866235449074E-19   0.00000000000000E+00   0.00000000000000E+00   0.00000000000000E+00   0.00000000000000E+00
     -8.54379836144865E-17  -3.05050189220875E-34  -8.54379836144865E-17  -1.34262230309509E-17   7.78923293369836E-02
      7.78923288494164E-02   0.00000000000000E+00   0.00000000000000E+00   2.71793245504027E-09   1.56839827258654E-35
      2.71793245504027E-09   6.99286929586049E-18
      1.91144951946474E-01
      0.00000000000000E+00   4.92349783462899E-10   0.00000000000000E+00   0.00000000000000E+00  -2.75677165914778E-09