DF-ISE text

Info {
  version   = 1.0
  type      = xyplot
  datasets  = [
    "time"
    "source OuterVoltage" "source InnerVoltage" "source QuasiFermiPotential" "source DisplacementCurrent" "source eCurrent"
    "source hCurrent" "source TotalCurrent" "source Charge" "gate OuterVoltage" "gate InnerVoltage"
    "gate QuasiFermiPotential" "gate DisplacementCurrent" "gate eCurrent" "gate hCurrent" "gate TotalCurrent"
    "gate Charge" "substrate OuterVoltage" "substrate InnerVoltage" "substrate QuasiFermiPotential" "substrate DisplacementCurrent"
    "substrate eCurrent" "substrate hCurrent" "substrate TotalCurrent" "substrate Charge" "drain OuterVoltage"
    "drain InnerVoltage" "drain QuasiFermiPotential" "drain DisplacementCurrent" "drain eCurrent" "drain hCurrent"
    "drain TotalCurrent" "drain Charge" ]
  functions = [
    Time
    OuterVoltage InnerVoltage QuasiFermiPotential DisplacementCurrent eCurrent
    hCurrent TotalCurrent Charge OuterVoltage InnerVoltage
    QuasiFermiPotential DisplacementCurrent eCurrent hCurrent TotalCurrent
    Charge OuterVoltage InnerVoltage QuasiFermiPotential DisplacementCurrent
    eCurrent hCurrent TotalCurrent Charge OuterVoltage
    InnerVoltage QuasiFermiPotential DisplacementCurrent eCurrent hCurrent
    TotalCurrent Charge ]
}

Data {
      0.00000000000000E+00
      0.00000000000000E+00   0.00000000000000E+00   0.00000000000000E+00   0.00000000000000E+00  -3.59432644113990E-22
      2.72559836650448E-35  -3.59432644113963E-22   5.68497161230969E-18   0.00000000000000E+00   0.00000000000000E+00
      0.00000000000000E+00   0.00000000000000E+00   0.00000000000000E+00   0.00000000000000E+00   0.00000000000000E+00
      2.12275416725126E-18   0.00000000000000E+00   0.00000000000000E+00   0.00000000000000E+00   0.00000000000000E+00
     -3.11782025618726E-19   5.20563782062091E-35  -3.11782025618726E-19  -1.39213719882587E-17   0.00000000000000E+00
      0.00000000000000E+00   0.00000000000000E+00   0.00000000000000E+00   3.12141458262840E-19  -7.93123618712538E-35
      3.12141458262840E-19   6.11364620869770E-18
      0.00000000000000E+00
      0.00000000000000E+00   4.54676916868944E-19   0.00000000000000E+00   0.00000000000000E+00  -2.61060288248358E-19
      3.13514423974872E-35  -2.61060288248358E-19   5.68049516723641E-18   0.00000000000000E+00   0.00000000000000E+00
      0.00000000000000E+00   0.00000000000000E+00   0.00000000000000E+00   0.00000000000000E+00   0.00000000000000E+00
      2.11557674062238E-18   0.00000000000000E+00   0.00000000000000E+00   0.00000000000000E+00   0.00000000000000E+00
      2.78146206129933E-18   4.35776257881817E-36   2.78146206129933E-18  -1.39055874087606E-17   0.00000000000000E+00
     -3.18273841808261E-18   0.00000000000000E+00   0.00000000000000E+00  -2.52040177305097E-18  -3.57092049763054E-35
     -2.52040177305097E-18   6.10951550090185E-18
      1.00000000000000E-03
      0.00000000000000E+00   1.64405125936816E-12   0.00000000000000E+00   0.00000000000000E+00  -9.34207496579167E-12
      2.88084393129872E-35  -9.34207496579167E-12   5.68045167438803E-18   0.00000000000000E+00   0.00000000000000E+00
      0.00000000000000E+00   0.00000000000000E+00   0.00000000000000E+00   0.00000000000000E+00   0.00000000000000E+00
      2.11487080799052E-18   0.00000000000000E+00   0.00000000000000E+00   0.00000000000000E+00   0.00000000000000E+00
      1.49706391148961E-18   1.64422189392200E-35   1.49706391148961E-18  -1.39055636770620E-17   5.00000000000000E-05
      4.99999983451810E-05   0.00000000000000E+00   0.00000000000000E+00   9.34207346872776E-12  -4.52506582522072E-35
      9.34207346872776E-12   6.11024119468340E-18
      2.09333333333333E-03
      0.00000000000000E+00   3.43593071536408E-12   0.00000000000000E+00   0.00000000000000E+00  -1.95241974272780E-11
      3.39869954875093E-35  -1.95241974272780E-11   5.68040412253477E-18   0.00000000000000E+00   0.00000000000000E+00
      0.00000000000000E+00   0.00000000000000E+00   0.00000000000000E+00   0.00000000000000E+00   0.00000000000000E+00
      2.11409899672906E-18   0.00000000000000E+00   0.00000000000000E+00   0.00000000000000E+00   0.00000000000000E+00
     -2.31541535682601E-18   5.69866921195735E-35  -2.31541535682601E-18  -1.39055377501818E-17   1.04666666666667E-04
      1.04666663208223E-04   0.00000000000000E+00   0.00000000000000E+00   1.95241997426933E-11  -9.09736876070828E-35
      1.95241997426933E-11   6.11103463091800E-18
      3.29600000000000E-03
      0.00000000000000E+00   5.39996676577868E-12   0.00000000000000E+00   0.00000000000000E+00  -3.06844889215507E-11
      1.69783839920856E-35  -3.06844889215507E-11   5.68035181589271E-18   0.00000000000000E+00   0.00000000000000E+00
      0.00000000000000E+00   0.00000000000000E+00   0.00000000000000E+00   0.00000000000000E+00   0.00000000000000E+00
      2.11325001448651E-18   0.00000000000000E+00   0.00000000000000E+00   0.00000000000000E+00   0.00000000000000E+00
     -4.28305759448225E-20   2.44613342290501E-35  -4.28305759448224E-20  -1.39055092544571E-17   1.64800000000000E-04
      1.64799994564675E-04   0.00000000000000E+00   0.00000000000000E+00   3.06844889643813E-11  -4.14397182211357E-35
      3.06844889643813E-11   6.11190742407781E-18
      4.61893333333333E-03
      0.00000000000000E+00   7.55167889781544E-12   0.00000000000000E+00   0.00000000000000E+00  -4.29112727415845E-11
      5.92420866757829E-35  -4.29112727415845E-11   5.68029427906725E-18   0.00000000000000E+00   0.00000000000000E+00
      0.00000000000000E+00   0.00000000000000E+00   0.00000000000000E+00   0.00000000000000E+00   0.00000000000000E+00
      2.11231614628424E-18   0.00000000000000E+00   0.00000000000000E+00   0.00000000000000E+00   0.00000000000000E+00
     -1.29532997636218E-18   8.03789686539925E-36  -1.29532997636218E-18  -1.39054779379884E-17   2.30946666666667E-04
      2.30946659065536E-04   0.00000000000000E+00   0.00000000000000E+00   4.29112740369145E-11  -6.72799835411821E-35
      4.29112740369145E-11   6.11286751263688E-18
      6.07416000000000E-03
      0.00000000000000E+00   9.90785696598358E-12   0.00000000000000E+00   0.00000000000000E+00  -5.62998741920918E-11
      4.35112298135756E-35  -5.62998741920918E-11   5.68023098914171E-18   0.00000000000000E+00   0.00000000000000E+00
      0.00000000000000E+00   0.00000000000000E+00   0.00000000000000E+00   0.00000000000000E+00   0.00000000000000E+00
      2.11128890608714E-18   0.00000000000000E+00   0.00000000000000E+00   0.00000000000000E+00   0.00000000000000E+00
     -7.16282197601493E-19   1.80141707559736E-35  -7.16282197601493E-19  -1.39054435247263E-17   3.03708000000000E-04
      3.03707990027268E-04   0.00000000000000E+00   0.00000000000000E+00   5.62998749083741E-11  -6.15254005695492E-35
      5.62998749083741E-11   6.11392362949743E-18
      7.67490933333333E-03
      0.00000000000000E+00   1.24865552812981E-11   0.00000000000000E+00   0.00000000000000E+00  -7.09528579225938E-11
      1.42932647792760E-35  -7.09528579225938E-11   5.68016137092887E-18   0.00000000000000E+00   0.00000000000000E+00
      0.00000000000000E+00   0.00000000000000E+00   0.00000000000000E+00   0.00000000000000E+00   0.00000000000000E+00
      2.11015895978961E-18   0.00000000000000E+00   0.00000000000000E+00   0.00000000000000E+00   0.00000000000000E+00
      1.58970086456001E-20   4.47218812671389E-35   1.58970086456001E-20  -1.39054057122719E-17   3.83745466666667E-04
      3.83745454098362E-04   0.00000000000000E+00   0.00000000000000E+00   7.09528579066967E-11  -5.90151460464148E-35
      7.09528579066967E-11   6.11508538155336E-18
      9.43573360000000E-03
      0.00000000000000E+00   1.53071267120487E-11   0.00000000000000E+00   0.00000000000000E+00  -8.69802450463558E-11
      2.94597564178335E-35  -8.69802450463558E-11   5.68008479174841E-18   0.00000000000000E+00   0.00000000000000E+00
      0.00000000000000E+00   0.00000000000000E+00   0.00000000000000E+00   0.00000000000000E+00   0.00000000000000E+00
      2.10891604051916E-18   0.00000000000000E+00   0.00000000000000E+00   0.00000000000000E+00   0.00000000000000E+00
     -1.26026094526372E-18   5.31975044360242E-35  -1.26026094526372E-18  -1.39053641695030E-17   4.71786680000000E-04
      4.71786664592681E-04   0.00000000000000E+00   0.00000000000000E+00   8.69802463066167E-11  -8.26572608538576E-35
      8.69802463066167E-11   6.11636333723541E-18
      1.13726402933333E-02
      0.00000000000000E+00   1.83902790637372E-11   0.00000000000000E+00   0.00000000000000E+00  -1.04499673631153E-10
      4.04925695549961E-36  -1.04499673631153E-10   5.68000055568287E-18   0.00000000000000E+00   0.00000000000000E+00
      0.00000000000000E+00   0.00000000000000E+00   0.00000000000000E+00   0.00000000000000E+00   0.00000000000000E+00
      2.10754885549197E-18   0.00000000000000E+00   0.00000000000000E+00   0.00000000000000E+00   0.00000000000000E+00
     -5.65379381703342E-19   4.86210061022823E-35  -5.65379381703342E-19  -1.39053185340150E-17   5.68632014666667E-04
      5.68631996156029E-04   0.00000000000000E+00   0.00000000000000E+00   1.04499674196533E-10  -5.26702630577819E-35
      1.04499674196533E-10   6.11776912284016E-18
      1.35032376560000E-02
      0.00000000000000E+00   2.17580796258469E-11   0.00000000000000E+00   0.00000000000000E+00  -1.23636465300178E-10
      4.04679313946011E-35  -1.23636465300178E-10   5.67990789726031E-18   0.00000000000000E+00   0.00000000000000E+00
      0.00000000000000E+00   0.00000000000000E+00   0.00000000000000E+00   0.00000000000000E+00   0.00000000000000E+00
      2.10604498358291E-18   0.00000000000000E+00   0.00000000000000E+00   0.00000000000000E+00   0.00000000000000E+00
     -4.97162075024620E-19   2.46084471484825E-35  -4.97162075024620E-19  -1.39052684093727E-17   6.75161882800000E-04
      6.75161860899548E-04   0.00000000000000E+00   0.00000000000000E+00   1.23636465797340E-10  -6.50763785430837E-35
      1.23636465797340E-10   6.11931552852943E-18
      1.58468947549333E-02
      0.00000000000000E+00   2.54339269818737E-11   0.00000000000000E+00   0.00000000000000E+00  -1.44523573994838E-10
      1.82321364122727E-36  -1.44523573994838E-10   5.67980597450669E-18   0.00000000000000E+00   0.00000000000000E+00
      0.00000000000000E+00   0.00000000000000E+00   0.00000000000000E+00   0.00000000000000E+00   0.00000000000000E+00
      2.10439076268413E-18   0.00000000000000E+00   0.00000000000000E+00   0.00000000000000E+00   0.00000000000000E+00
     -6.52264454010252E-19   4.26837088292719E-35  -6.52264454010252E-19  -1.39052133621631E-17   7.92344737746667E-04
      7.92344712146351E-04   0.00000000000000E+00   0.00000000000000E+00   1.44523574647102E-10  -4.45069224704992E-35
      1.44523574647102E-10   6.12101662497222E-18
      1.84249175637600E-02
      0.00000000000000E+00   2.94425219100035E-11   0.00000000000000E+00   0.00000000000000E+00  -1.67301379913169E-10
      2.77385421919189E-35  -1.67301379913169E-10   5.67969386130483E-18   0.00000000000000E+00   0.00000000000000E+00
      0.00000000000000E+00   0.00000000000000E+00   0.00000000000000E+00   0.00000000000000E+00   0.00000000000000E+00
      2.10257116583915E-18   0.00000000000000E+00   0.00000000000000E+00   0.00000000000000E+00   0.00000000000000E+00
      1.63959965381667E-18   9.26225775700254E-36   1.63959965381667E-18  -1.39051529188479E-17   9.21245878188001E-04
      9.21245848552904E-04   0.00000000000000E+00   0.00000000000000E+00   1.67301378273569E-10  -3.70007999489214E-35
      1.67301378273569E-10   6.12288789170386E-18
      2.12607426534693E-02
      0.00000000000000E+00   3.38098146405896E-11   0.00000000000000E+00   0.00000000000000E+00  -1.92117286439847E-10
      2.83473621474373E-35  -1.92117286439847E-10   5.67957053899137E-18   0.00000000000000E+00   0.00000000000000E+00
      0.00000000000000E+00   0.00000000000000E+00   0.00000000000000E+00   0.00000000000000E+00   0.00000000000000E+00
      2.10056966503789E-18   0.00000000000000E+00   0.00000000000000E+00   0.00000000000000E+00   0.00000000000000E+00
      4.89013504580724E-19   3.32671609139976E-35   4.89013504580724E-19  -1.39050865624137E-17   1.06303713267347E-03
      1.06303709864256E-03   0.00000000000000E+00   0.00000000000000E+00   1.92117285950833E-10  -6.16145230614349E-35
      1.92117285950833E-10   6.12494635838447E-18
      2.43801502521496E-02
      0.00000000000000E+00   3.85628834574161E-11   0.00000000000000E+00   0.00000000000000E+00  -2.19125074755564E-10
      2.85334995045067E-35  -2.19125074755564E-10   5.67943488711540E-18   0.00000000000000E+00   0.00000000000000E+00
      0.00000000000000E+00   0.00000000000000E+00   0.00000000000000E+00   0.00000000000000E+00   0.00000000000000E+00
      2.09836808144778E-18   0.00000000000000E+00   0.00000000000000E+00   0.00000000000000E+00   0.00000000000000E+00
      1.24803940749563E-18   3.65437439496637E-35   1.24803940749563E-18  -1.39050137288222E-17   1.21900751260748E-03
      1.21900747379247E-03   0.00000000000000E+00   0.00000000000000E+00   2.19125073507525E-10  -6.50772434541704E-35
      2.19125073507525E-10   6.12721076025903E-18
      2.78114986106979E-02
      0.00000000000000E+00   4.37297519175774E-11   0.00000000000000E+00   0.00000000000000E+00  -2.48483963158409E-10
      5.20989586589363E-35  -2.48483963158409E-10   5.67928567327611E-18   0.00000000000000E+00   0.00000000000000E+00
      0.00000000000000E+00   0.00000000000000E+00   0.00000000000000E+00   0.00000000000000E+00   0.00000000000000E+00
      2.09594642073551E-18   0.00000000000000E+00   0.00000000000000E+00   0.00000000000000E+00   0.00000000000000E+00
     -3.44650880101671E-18  -1.01746059762125E-35  -3.44650880101671E-18  -1.39049338032663E-17   1.39057493053490E-03
      1.39057488651931E-03   0.00000000000000E+00   0.00000000000000E+00   2.48483966604917E-10  -4.19243526827238E-35
      2.48483966604917E-10   6.12970170925470E-18
      3.15859818051010E-02
      0.00000000000000E+00   4.93391751533270E-11   0.00000000000000E+00   0.00000000000000E+00  -2.80357305180383E-10
      5.58278449424286E-36  -2.80357305180383E-10   5.67912154194684E-18   0.00000000000000E+00   0.00000000000000E+00
      0.00000000000000E+00   0.00000000000000E+00   0.00000000000000E+00   0.00000000000000E+00   0.00000000000000E+00
      2.09328269200357E-18   0.00000000000000E+00   0.00000000000000E+00   0.00000000000000E+00   0.00000000000000E+00
      2.51270644799969E-18   4.21026742236833E-35   2.51270644799969E-18  -1.39048461162485E-17   1.57929909025505E-03
      1.57929904059347E-03   0.00000000000000E+00   0.00000000000000E+00   2.80357302667676E-10  -4.76854587179262E-35
      2.80357302667676E-10   6.13244188229809E-18
      3.57379133189445E-02
      0.00000000000000E+00   5.54203529709432E-11   0.00000000000000E+00   0.00000000000000E+00  -3.14910866371998E-10
      2.69496073144761E-35  -3.14910866371998E-10   5.67894100218576E-18   0.00000000000000E+00   0.00000000000000E+00
      0.00000000000000E+00   0.00000000000000E+00   0.00000000000000E+00   0.00000000000000E+00   0.00000000000000E+00
      2.09035270871393E-18   0.00000000000000E+00   0.00000000000000E+00   0.00000000000000E+00   0.00000000000000E+00
      2.25947169228915E-18   3.53283375353138E-35   2.25947169228915E-18  -1.39047499394934E-17   1.78689566594722E-03
      1.78689561016483E-03   0.00000000000000E+00   0.00000000000000E+00   3.14910864112526E-10  -6.22779448497899E-35
      3.14910864112526E-10   6.13545622859370E-18
      4.03050379841723E-02
      0.00000000000000E+00   6.20024833579965E-11   0.00000000000000E+00   0.00000000000000E+00  -3.52310601865651E-10
     -2.08008841899283E-35  -3.52310601865651E-10   5.67874241412241E-18   0.00000000000000E+00   0.00000000000000E+00
      0.00000000000000E+00   0.00000000000000E+00   0.00000000000000E+00   0.00000000000000E+00   0.00000000000000E+00
      2.08712986982605E-18   0.00000000000000E+00   0.00000000000000E+00   0.00000000000000E+00   0.00000000000000E+00
      1.30509254330236E-17   9.41502309338937E-35   1.30509254330236E-17  -1.39046444817395E-17   2.01525189920861E-03
      2.01525183680122E-03   0.00000000000000E+00   0.00000000000000E+00   3.52310588814725E-10  -7.33493467439656E-35
      3.52310588814725E-10   6.13877219779108E-18
      4.53288751159228E-02
      0.00000000000000E+00   6.91143473633247E-11   0.00000000000000E+00   0.00000000000000E+00  -3.92719804206396E-10
      2.95576301720339E-35  -3.92719804206396E-10   5.67852397409766E-18   0.00000000000000E+00   0.00000000000000E+00
      0.00000000000000E+00   0.00000000000000E+00   0.00000000000000E+00   0.00000000000000E+00   0.00000000000000E+00
      2.08358491918213E-18   0.00000000000000E+00   0.00000000000000E+00   0.00000000000000E+00   0.00000000000000E+00
      7.54118175594542E-18   3.68201216830947E-35   7.54118175594542E-18  -1.39045288844343E-17   2.26644375579614E-03
      2.26644368623060E-03   0.00000000000000E+00   0.00000000000000E+00   3.92719796665214E-10  -6.63777518551286E-35
      3.92719796665214E-10   6.14241999115449E-18
      5.08550959608485E-02
      0.00000000000000E+00   7.67836152600577E-11   0.00000000000000E+00   0.00000000000000E+00  -4.36295707609928E-10
      2.96376545556493E-35  -4.36295707609928E-10   5.67828369832503E-18   0.00000000000000E+00   0.00000000000000E+00
      0.00000000000000E+00   0.00000000000000E+00   0.00000000000000E+00   0.00000000000000E+00   0.00000000000000E+00
      2.07968568100600E-18   0.00000000000000E+00   0.00000000000000E+00   0.00000000000000E+00   0.00000000000000E+00
      2.18354035732664E-17   4.55407120809964E-35   2.18354035732664E-17  -1.39044022174108E-17   2.54275479804242E-03
      2.54275472075772E-03   0.00000000000000E+00   0.00000000000000E+00   4.36295685774525E-10  -7.51783666366458E-35
      4.36295685774525E-10   6.14643283807972E-18
      5.69339388902666E-02
      0.00000000000000E+00   8.50361690770113E-11   0.00000000000000E+00   0.00000000000000E+00  -4.83185142517952E-10
      1.74003675958562E-35  -4.83185142517952E-10   5.67801940492481E-18   0.00000000000000E+00   0.00000000000000E+00
      0.00000000000000E+00   0.00000000000000E+00   0.00000000000000E+00   0.00000000000000E+00   0.00000000000000E+00
      2.07539676912600E-18   0.00000000000000E+00   0.00000000000000E+00   0.00000000000000E+00   0.00000000000000E+00
      1.54676104889497E-17   4.04269581954020E-35   1.54676104889497E-17  -1.39042634745727E-17   2.84669694451333E-03
      2.84669685892244E-03   0.00000000000000E+00   0.00000000000000E+00   4.83185127050341E-10  -5.78273257912582E-35
      4.83185127050341E-10   6.15084730052190E-18
      6.36206661126266E-02
      0.00000000000000E+00   9.38951764218078E-11   0.00000000000000E+00   0.00000000000000E+00  -5.33519706586896E-10
      4.39957937823994E-35  -5.33519706586896E-10   5.67772869417064E-18   0.00000000000000E+00   0.00000000000000E+00
      0.00000000000000E+00   0.00000000000000E+00   0.00000000000000E+00   0.00000000000000E+00   0.00000000000000E+00
      2.07067926735864E-18   0.00000000000000E+00   0.00000000000000E+00   0.00000000000000E+00   0.00000000000000E+00
      3.33545098557536E-17   1.12967797912784E-35   3.33545098557536E-17  -1.39041115697217E-17   3.18103330563133E-03
      3.18103321112389E-03   0.00000000000000E+00   0.00000000000000E+00   5.33519673232386E-10  -5.52925735736779E-35
      5.33519673232386E-10   6.15570360819243E-18
      7.09760660572226E-02
      0.00000000000000E+00   1.03380081552797E-10   0.00000000000000E+00   0.00000000000000E+00  -5.87409560141730E-10
      1.88861039245268E-35  -5.87409560141730E-10   5.67740892677260E-18   0.00000000000000E+00   0.00000000000000E+00
      0.00000000000000E+00   0.00000000000000E+00   0.00000000000000E+00   0.00000000000000E+00   0.00000000000000E+00
      2.06549037823069E-18   0.00000000000000E+00   0.00000000000000E+00   0.00000000000000E+00   0.00000000000000E+00
      3.34038255960615E-17   5.23697237815642E-35   3.34038255960615E-17  -1.39039453326672E-17   3.54880330286113E-03
      3.54880319880724E-03   0.00000000000000E+00   0.00000000000000E+00   5.87409526737904E-10  -7.12558277060910E-35
      5.87409526737904E-10   6.16104602766392E-18
      7.90670059962782E-02
      0.00000000000000E+00   1.13505333647720E-10   0.00000000000000E+00   0.00000000000000E+00  -6.44936735009292E-10
      1.29420923025387E-35  -6.44936735009292E-10   5.67705720000047E-18   0.00000000000000E+00   0.00000000000000E+00
      0.00000000000000E+00   0.00000000000000E+00   0.00000000000000E+00   0.00000000000000E+00   0.00000000000000E+00
      2.05978303688418E-18   0.00000000000000E+00   0.00000000000000E+00   0.00000000000000E+00   0.00000000000000E+00
      4.79916403214169E-17   4.64925985615382E-35   4.79916403214169E-17  -1.39037635057252E-17   3.95335029981391E-03
      3.95335018556913E-03   0.00000000000000E+00   0.00000000000000E+00   6.44936687017652E-10  -5.94346908640769E-35
      6.44936687017652E-10   6.16692326884058E-18
      8.79670399292394E-02
      0.00000000000000E+00   1.24279069150004E-10   0.00000000000000E+00   0.00000000000000E+00  -7.06147230070308E-10
      4.34677819784333E-35  -7.06147230070308E-10   5.67667032143294E-18   0.00000000000000E+00   0.00000000000000E+00
      0.00000000000000E+00   0.00000000000000E+00   0.00000000000000E+00   0.00000000000000E+00   0.00000000000000E+00
      2.05350548673529E-18   0.00000000000000E+00   0.00000000000000E+00   0.00000000000000E+00   0.00000000000000E+00
      7.12945025389326E-17   8.31784887587770E-36   7.12945025389326E-17  -1.39035647407701E-17   4.39835199646197E-03
      4.39835187137369E-03   0.00000000000000E+00   0.00000000000000E+00   7.06147158775805E-10  -5.17856308543110E-35
      7.06147158775805E-10   6.17338893260185E-18
      9.77570772554967E-02
      0.00000000000000E+00   1.35701538131954E-10   0.00000000000000E+00   0.00000000000000E+00  -7.71042268306717E-10
      2.56297040542696E-35  -7.71042268306717E-10   5.67624478010062E-18   0.00000000000000E+00   0.00000000000000E+00
      0.00000000000000E+00   0.00000000000000E+00   0.00000000000000E+00   0.00000000000000E+00   0.00000000000000E+00
      2.04660081319508E-18   0.00000000000000E+00   0.00000000000000E+00   0.00000000000000E+00   0.00000000000000E+00
      1.12322565806839E-16   4.97832330049619E-35   1.12322565806839E-16  -1.39033475971673E-17   4.88785386277484E-03
      4.88785372619021E-03   0.00000000000000E+00   0.00000000000000E+00   7.71042155984151E-10  -7.54129370592315E-35
      7.71042155984151E-10   6.18050200387162E-18
      1.07757077255497E-01
      0.00000000000000E+00   1.46919187893808E-10   0.00000000000000E+00   0.00000000000000E+00  -8.34772439792236E-10
      2.97526766574354E-35  -8.34772439792236E-10   5.67581013929983E-18   0.00000000000000E+00   0.00000000000000E+00
      0.00000000000000E+00   0.00000000000000E+00   0.00000000000000E+00   0.00000000000000E+00   0.00000000000000E+00
      2.03954873658403E-18   0.00000000000000E+00   0.00000000000000E+00   0.00000000000000E+00   0.00000000000000E+00
      1.20916999210675E-16   1.60018294537091E-35   1.20916999210675E-16  -1.39031274070695E-17   5.38785386277483E-03
      5.38785371490010E-03   0.00000000000000E+00   0.00000000000000E+00   8.34772318875237E-10  -4.57545061111445E-35
      8.34772318875237E-10   6.18776853118564E-18
      1.17757077255497E-01
      0.00000000000000E+00   1.57696716765610E-10   0.00000000000000E+00   0.00000000000000E+00  -8.96001033119612E-10
      7.93995539234391E-35  -8.96001033119612E-10   5.67537552549988E-18   0.00000000000000E+00   0.00000000000000E+00
      0.00000000000000E+00   0.00000000000000E+00   0.00000000000000E+00   0.00000000000000E+00   0.00000000000000E+00
      2.03249734080785E-18   0.00000000000000E+00   0.00000000000000E+00   0.00000000000000E+00   0.00000000000000E+00
      1.13102010655920E-16  -3.34599400536669E-35   1.13102010655920E-16  -1.39029088346912E-17   5.88785386277483E-03
      5.88785370405305E-03   0.00000000000000E+00   0.00000000000000E+00   8.96000920017602E-10  -4.59396138697723E-35
      8.96000920017602E-10   6.19503596838344E-18
      1.27757077255497E-01
      0.00000000000000E+00   1.68048517545163E-10   0.00000000000000E+00   0.00000000000000E+00  -9.54810052854280E-10
      1.02087177777238E-35  -9.54810052854280E-10   5.67494093847887E-18   0.00000000000000E+00   0.00000000000000E+00
      0.00000000000000E+00   0.00000000000000E+00   0.00000000000000E+00   0.00000000000000E+00   0.00000000000000E+00
      2.02544662099770E-18   0.00000000000000E+00   0.00000000000000E+00   0.00000000000000E+00   0.00000000000000E+00
      8.65430511191815E-17   4.69897066584355E-35   8.65430511191815E-17  -1.39026918700830E-17   6.38785386277483E-03
      6.38785369363456E-03   0.00000000000000E+00   0.00000000000000E+00   9.54809966311230E-10  -5.71984244361593E-35
      9.54809966311230E-10   6.20230431060643E-18
      1.37757077255497E-01
      0.00000000000000E+00   1.77988844353811E-10   0.00000000000000E+00   0.00000000000000E+00  -1.01128063402699E-09
      4.13655438204286E-35  -1.01128063402699E-09   5.67450637801727E-18   0.00000000000000E+00   0.00000000000000E+00
      0.00000000000000E+00   0.00000000000000E+00   0.00000000000000E+00   0.00000000000000E+00   0.00000000000000E+00
      2.01839657237208E-18   0.00000000000000E+00   0.00000000000000E+00   0.00000000000000E+00   0.00000000000000E+00
      1.21153412997503E-16   1.45897090853963E-36   1.21153412997503E-16  -1.39024765034643E-17   6.88785386277483E-03
      6.88785368363027E-03   0.00000000000000E+00   0.00000000000000E+00   1.01128051287358E-09  -4.28245147289682E-35
      1.01128051287358E-09   6.20957355307498E-18
      1.47757077255497E-01
      0.00000000000000E+00   1.87531727157178E-10   0.00000000000000E+00   0.00000000000000E+00  -1.06549247004317E-09
      1.22103324205009E-35  -1.06549247004317E-09   5.67407184389317E-18   0.00000000000000E+00   0.00000000000000E+00
      0.00000000000000E+00   0.00000000000000E+00   0.00000000000000E+00   0.00000000000000E+00   0.00000000000000E+00
      2.01134719012897E-18   0.00000000000000E+00   0.00000000000000E+00   0.00000000000000E+00   0.00000000000000E+00
      6.36721708982955E-19   1.80707030178794E-35   6.36721708982955E-19  -1.39022627250260E-17   7.38785386277483E-03
      7.38785367402610E-03   0.00000000000000E+00   0.00000000000000E+00   1.06549246940644E-09  -3.02810354383803E-35
      1.06549246940644E-09   6.21684369100385E-18
      1.57757077255497E-01
      0.00000000000000E+00   1.96690912657168E-10   0.00000000000000E+00   0.00000000000000E+00  -1.11752422583985E-09
      6.20445279460556E-35  -1.11752422583985E-09   5.67363733588308E-18   0.00000000000000E+00   0.00000000000000E+00
      0.00000000000000E+00   0.00000000000000E+00   0.00000000000000E+00   0.00000000000000E+00   0.00000000000000E+00
      2.00429846950581E-18   0.00000000000000E+00   0.00000000000000E+00   0.00000000000000E+00   0.00000000000000E+00
      1.17069900090921E-16  -1.18214198064874E-35   1.17069900090921E-16  -1.39020505250264E-17   7.88785386277484E-03
      7.88785366480814E-03   0.00000000000000E+00   0.00000000000000E+00   1.11752410876995E-09  -5.02231081395682E-35
      1.11752410876995E-09   6.22411471963750E-18
      1.67757077255497E-01
      0.00000000000000E+00   2.05479868838736E-10   0.00000000000000E+00   0.00000000000000E+00  -1.16745214448993E-09
      2.73855161008192E-35  -1.16745214448993E-09   5.67320285376514E-18   0.00000000000000E+00   0.00000000000000E+00
      0.00000000000000E+00   0.00000000000000E+00   0.00000000000000E+00   0.00000000000000E+00   0.00000000000000E+00
      1.99725040579267E-18   0.00000000000000E+00   0.00000000000000E+00   0.00000000000000E+00   0.00000000000000E+00
      1.17239142209665E-16   2.68415444837709E-35   1.17239142209665E-16  -1.39018398938163E-17   8.38785386277484E-03
      8.38785365596288E-03   0.00000000000000E+00   0.00000000000000E+00   1.16745202725079E-09  -5.42270605845900E-35
      1.16745202725079E-09   6.23138663425848E-18
      1.77757077255497E-01
      0.00000000000000E+00   2.13911742684934E-10   0.00000000000000E+00   0.00000000000000E+00  -1.21535123169480E-09
      3.00881700151383E-35  -1.21535123169480E-09   5.67276839731721E-18   0.00000000000000E+00   0.00000000000000E+00
      0.00000000000000E+00   0.00000000000000E+00   0.00000000000000E+00   0.00000000000000E+00   0.00000000000000E+00
      1.99020299429372E-18   0.00000000000000E+00   0.00000000000000E+00   0.00000000000000E+00   0.00000000000000E+00
      1.16489099813111E-16   1.87859415929639E-36   1.16489099813111E-16  -1.39016308217804E-17   8.88785386277484E-03
      8.88785364747705E-03   0.00000000000000E+00   0.00000000000000E+00   1.21535111520570E-09  -3.19667641744347E-35
      1.21535111520570E-09   6.23865943016942E-18
      1.87757077255497E-01
      0.00000000000000E+00   2.21999374726570E-10   0.00000000000000E+00   0.00000000000000E+00  -1.26129447823065E-09
      5.84200804221068E-36  -1.26129447823065E-09   5.67233396631876E-18   0.00000000000000E+00   0.00000000000000E+00
      0.00000000000000E+00   0.00000000000000E+00   0.00000000000000E+00   0.00000000000000E+00   0.00000000000000E+00
      1.98315623037487E-18   0.00000000000000E+00   0.00000000000000E+00   0.00000000000000E+00   0.00000000000000E+00
      1.18125515402520E-16   1.99127016136773E-35   1.18125515402520E-16  -1.39014232994025E-17   9.38785386277484E-03
      9.38785363933776E-03   0.00000000000000E+00   0.00000000000000E+00   1.26129436010513E-09  -2.57547096558879E-35
      1.26129436010513E-09   6.24593310270888E-18
      1.97757077255497E-01
      0.00000000000000E+00   2.29755251755813E-10   0.00000000000000E+00   0.00000000000000E+00  -1.30535302234130E-09