DF-ISE text

Info {
  version   = 1.0
  type      = xyplot
  datasets  = [
    "time"
    "source OuterVoltage" "source InnerVoltage" "source QuasiFermiPotential" "source DisplacementCurrent" "source eCurrent"
    "source hCurrent" "source TotalCurrent" "source Charge" "gate OuterVoltage" "gate InnerVoltage"
    "gate QuasiFermiPotential" "gate DisplacementCurrent" "gate eCurrent" "gate hCurrent" "gate TotalCurrent"
    "gate Charge" "substrate OuterVoltage" "substrate InnerVoltage" "substrate QuasiFermiPotential" "substrate DisplacementCurrent"
    "substrate eCurrent" "substrate hCurrent" "substrate TotalCurrent" "substrate Charge" "drain OuterVoltage"
    "drain InnerVoltage" "drain QuasiFermiPotential" "drain DisplacementCurrent" "drain eCurrent" "drain hCurrent"
    "drain TotalCurrent" "drain Charge" ]
  functions = [
    Time
    OuterVoltage InnerVoltage QuasiFermiPotential DisplacementCurrent eCurrent
    hCurrent TotalCurrent Charge OuterVoltage InnerVoltage
    QuasiFermiPotential DisplacementCurrent eCurrent hCurrent TotalCurrent
    Charge OuterVoltage InnerVoltage QuasiFermiPotential DisplacementCurrent
    eCurrent hCurrent TotalCurrent Charge OuterVoltage
    InnerVoltage QuasiFermiPotential DisplacementCurrent eCurrent hCurrent
    TotalCurrent Charge ]
}

Data {
      0.00000000000000E+00
      0.00000000000000E+00   0.00000000000000E+00   0.00000000000000E+00   0.00000000000000E+00  -9.82913387918640E-22
     -1.38707200340539E-34  -9.82913387918779E-22   6.53031626872612E-18   0.00000000000000E+00   0.00000000000000E+00
      0.00000000000000E+00   0.00000000000000E+00   0.00000000000000E+00   0.00000000000000E+00   0.00000000000000E+00
      2.03747113935067E-18   0.00000000000000E+00   0.00000000000000E+00   0.00000000000000E+00   0.00000000000000E+00
      1.37406447134001E-20   3.64721015826288E-34   1.37406447134005E-20  -1.51946355536194E-17   0.00000000000000E+00
      0.00000000000000E+00   0.00000000000000E+00   0.00000000000000E+00  -1.27577313254814E-20  -2.26013815485749E-34
     -1.27577313254817E-20   6.62684814554262E-18
      0.00000000000000E+00
      0.00000000000000E+00   1.26391840193844E-18   0.00000000000000E+00   0.00000000000000E+00  -6.92111928133563E-19
     -1.31711491446494E-34  -6.92111928133563E-19   6.52510350632584E-18   0.00000000000000E+00   0.00000000000000E+00
      0.00000000000000E+00   0.00000000000000E+00   0.00000000000000E+00   0.00000000000000E+00   0.00000000000000E+00
      2.03031611898758E-18   0.00000000000000E+00   0.00000000000000E+00   0.00000000000000E+00   0.00000000000000E+00
      2.27001736349519E-18   3.31610586090181E-34   2.27001736349519E-18  -1.51776170069127E-17   0.00000000000000E+00
     -3.79175520581532E-18   0.00000000000000E+00   0.00000000000000E+00  -1.57790543536163E-18  -1.99899094643687E-34
     -1.57790543536163E-18   6.62219738159938E-18
      1.00000000000000E-03
      0.00000000000000E+00   1.88958750232735E-12   0.00000000000000E+00   0.00000000000000E+00  -1.24145911956563E-11
     -1.13056660673146E-34  -1.24145911956563E-11   6.52504591804646E-18   0.00000000000000E+00   0.00000000000000E+00
      0.00000000000000E+00   0.00000000000000E+00   0.00000000000000E+00   0.00000000000000E+00   0.00000000000000E+00
      2.02957346834004E-18   0.00000000000000E+00   0.00000000000000E+00   0.00000000000000E+00   0.00000000000000E+00
     -4.91169558762188E-21   3.17745925922627E-34  -4.91169558762156E-21  -1.51775859153279E-17   5.00000000000000E-05
      4.99999980993731E-05   0.00000000000000E+00   0.00000000000000E+00   1.24145912005680E-11  -2.04689265249480E-34
      1.24145912005680E-11   6.62296652894134E-18
      2.09333333333333E-03
      0.00000000000000E+00   3.94901024815997E-12   0.00000000000000E+00   0.00000000000000E+00  -2.59450422740732E-11
     -1.63722644653538E-34  -2.59450422740732E-11   6.52498295533660E-18   0.00000000000000E+00   0.00000000000000E+00
      0.00000000000000E+00   0.00000000000000E+00   0.00000000000000E+00   0.00000000000000E+00   0.00000000000000E+00
      2.02876151278355E-18   0.00000000000000E+00   0.00000000000000E+00   0.00000000000000E+00   0.00000000000000E+00
      1.06267131985965E-19   3.62522465271494E-34   1.06267131985965E-19  -1.51775519460458E-17   1.04666666666667E-04
      1.04666662694587E-04   0.00000000000000E+00   0.00000000000000E+00   2.59450421678060E-11  -1.98799820617956E-34
      2.59450421678060E-11   6.62380747792572E-18
      3.29600000000000E-03
      0.00000000000000E+00   6.20618103279241E-12   0.00000000000000E+00   0.00000000000000E+00  -4.07746307661609E-11
     -9.98934808870095E-35  -4.07746307661609E-11   6.52491369693138E-18   0.00000000000000E+00   0.00000000000000E+00
      0.00000000000000E+00   0.00000000000000E+00   0.00000000000000E+00   0.00000000000000E+00   0.00000000000000E+00
      2.02786837270294E-18   0.00000000000000E+00   0.00000000000000E+00   0.00000000000000E+00   0.00000000000000E+00
     -3.74802398339669E-19   2.99576052944370E-34  -3.74802398339669E-19  -1.51775146089936E-17   1.64800000000000E-04
      1.64799993757573E-04   0.00000000000000E+00   0.00000000000000E+00   4.07746311409633E-11  -1.99682572057361E-34
      4.07746311409633E-11   6.62473253935923E-18
      4.61893333333333E-03
      0.00000000000000E+00   8.67889877646689E-12   0.00000000000000E+00   0.00000000000000E+00  -5.70204203968981E-11
     -1.73455157209812E-34  -5.70204203968981E-11   6.52483751338368E-18   0.00000000000000E+00   0.00000000000000E+00
      0.00000000000000E+00   0.00000000000000E+00   0.00000000000000E+00   0.00000000000000E+00   0.00000000000000E+00
      2.02688593195053E-18   0.00000000000000E+00   0.00000000000000E+00   0.00000000000000E+00   0.00000000000000E+00
      4.76185595041887E-19   3.72758181671177E-34   4.76185595041887E-19  -1.51774735734923E-17   2.30946666666667E-04
      2.30946657937088E-04   0.00000000000000E+00   0.00000000000000E+00   5.70204199207125E-11  -1.99303024461365E-34
      5.70204199207125E-11   6.62575012815813E-18
      6.07416000000000E-03
      0.00000000000000E+00   1.13864074794652E-11   0.00000000000000E+00   0.00000000000000E+00  -7.48087101589589E-11
     -1.18846813664406E-34  -7.48087101589589E-11   6.52475371232696E-18   0.00000000000000E+00   0.00000000000000E+00
      0.00000000000000E+00   0.00000000000000E+00   0.00000000000000E+00   0.00000000000000E+00   0.00000000000000E+00
      2.02580526324390E-18   0.00000000000000E+00   0.00000000000000E+00   0.00000000000000E+00   0.00000000000000E+00
     -2.28114140585569E-19   3.19636875913601E-34  -2.28114140585568E-19  -1.51774284770686E-17   3.03708000000000E-04
      3.03707988547118E-04   0.00000000000000E+00   0.00000000000000E+00   7.48087103870731E-11  -2.00790062249195E-34
      7.48087103870731E-11   6.62686950149772E-18
      7.67490933333333E-03
      0.00000000000000E+00   1.43493671519854E-11   0.00000000000000E+00   0.00000000000000E+00  -9.42753301507071E-11
     -1.52480125553399E-34  -9.42753301507071E-11   6.52466153218883E-18   0.00000000000000E+00   0.00000000000000E+00
      0.00000000000000E+00   0.00000000000000E+00   0.00000000000000E+00   0.00000000000000E+00   0.00000000000000E+00
      2.02461654715191E-18   0.00000000000000E+00   0.00000000000000E+00   0.00000000000000E+00   0.00000000000000E+00
     -9.08895421955032E-19   3.52725950907909E-34  -9.08895421955031E-19  -1.51773789225384E-17   3.83745466666667E-04
      3.83745452233533E-04   0.00000000000000E+00   0.00000000000000E+00   9.42753310596025E-11  -2.00245825354510E-34
      9.42753310596025E-11   6.62810084319766E-18
      9.43573360000000E-03
      0.00000000000000E+00   1.75899667241858E-11   0.00000000000000E+00   0.00000000000000E+00  -1.15565908196642E-10
     -1.83556044300515E-34  -1.15565908196642E-10   6.52456013527676E-18   0.00000000000000E+00   0.00000000000000E+00
      0.00000000000000E+00   0.00000000000000E+00   0.00000000000000E+00   0.00000000000000E+00   0.00000000000000E+00
      2.02330898299986E-18   0.00000000000000E+00   0.00000000000000E+00   0.00000000000000E+00   0.00000000000000E+00
     -6.89818691774144E-19   3.79790671182484E-34  -6.89818691774144E-19  -1.51773244748558E-17   4.71786680000000E-04
      4.71786662307375E-04   0.00000000000000E+00   0.00000000000000E+00   1.15565908886461E-10  -1.96234626881968E-34
      1.15565908886461E-10   6.62945535657927E-18
      1.13726402933333E-02
      0.00000000000000E+00   2.11318616928772E-11   0.00000000000000E+00   0.00000000000000E+00  -1.38836055250240E-10
     -1.31190353495490E-34  -1.38836055250240E-10   6.52444860017401E-18   0.00000000000000E+00   0.00000000000000E+00
      0.00000000000000E+00   0.00000000000000E+00   0.00000000000000E+00   0.00000000000000E+00   0.00000000000000E+00
      2.02187069088979E-18   0.00000000000000E+00   0.00000000000000E+00   0.00000000000000E+00   0.00000000000000E+00
      8.72450443708846E-19   3.43836265114963E-34   8.72450443708847E-19  -1.51772646577124E-17   5.68632014666667E-04
      5.68631993411487E-04   0.00000000000000E+00   0.00000000000000E+00   1.38836054377789E-10  -2.12645911619473E-34
      1.38836054377789E-10   6.63094536664859E-18
      1.35032376560000E-02
      0.00000000000000E+00   2.50003085181792E-11   0.00000000000000E+00   0.00000000000000E+00  -1.64251424732292E-10
     -1.78752715651677E-34  -1.64251424732292E-10   6.52432591337653E-18   0.00000000000000E+00   0.00000000000000E+00
      0.00000000000000E+00   0.00000000000000E+00   0.00000000000000E+00   0.00000000000000E+00   0.00000000000000E+00
      2.02028860395264E-18   0.00000000000000E+00   0.00000000000000E+00   0.00000000000000E+00   0.00000000000000E+00
     -2.29452247273905E-19   3.61033923433930E-34  -2.29452247273905E-19  -1.51771989498749E-17   6.75161882800000E-04
      6.75161857653837E-04   0.00000000000000E+00   0.00000000000000E+00   1.64251424961745E-10  -1.82281207782252E-34
      1.64251424961745E-10   6.63258443254571E-18
      1.58468947549333E-02
      0.00000000000000E+00   2.92220087402512E-11   0.00000000000000E+00   0.00000000000000E+00  -1.91987613316806E-10
     -1.25894884127084E-34  -1.91987613316806E-10   6.52419096009519E-18   0.00000000000000E+00   0.00000000000000E+00
      0.00000000000000E+00   0.00000000000000E+00   0.00000000000000E+00   0.00000000000000E+00   0.00000000000000E+00
      2.01854834986051E-18   0.00000000000000E+00   0.00000000000000E+00   0.00000000000000E+00   0.00000000000000E+00
      4.44973315499237E-21   3.23577988618689E-34   4.44973315499269E-21  -1.51771267812527E-17   7.92344737746667E-04
      7.92344708354205E-04   0.00000000000000E+00   0.00000000000000E+00   1.91987613312357E-10  -1.97683104491605E-34
      1.91987613312357E-10   6.63438747129694E-18
      1.84249175637600E-02
      0.00000000000000E+00   3.38251759669675E-11   0.00000000000000E+00   0.00000000000000E+00  -2.22229840895095E-10
     -1.27903967106850E-34  -2.22229840895095E-10   6.52404251414141E-18   0.00000000000000E+00   0.00000000000000E+00
      0.00000000000000E+00   0.00000000000000E+00   0.00000000000000E+00   0.00000000000000E+00   0.00000000000000E+00
      2.01663412053424E-18   0.00000000000000E+00   0.00000000000000E+00   0.00000000000000E+00   0.00000000000000E+00
      7.75614222128717E-19   3.20347236973822E-34   7.75614222128718E-19  -1.51770475286883E-17   9.21245878188001E-04
      9.21245844165560E-04   0.00000000000000E+00   0.00000000000000E+00   2.22229840119481E-10  -1.92443269866972E-34
      2.22229840119481E-10   6.63637089401268E-18
      2.12607426534693E-02
      0.00000000000000E+00   3.88393905233009E-11   0.00000000000000E+00   0.00000000000000E+00  -2.55172364749886E-10
     -1.01680402865561E-34  -2.55172364749886E-10   6.52387922680298E-18   0.00000000000000E+00   0.00000000000000E+00
      0.00000000000000E+00   0.00000000000000E+00   0.00000000000000E+00   0.00000000000000E+00   0.00000000000000E+00
      2.01452852887372E-18   0.00000000000000E+00   0.00000000000000E+00   0.00000000000000E+00   0.00000000000000E+00
      1.01694391301472E-19   3.13442308828162E-34   1.01694391301472E-19  -1.51769605114659E-17   1.06303713267347E-03
      1.06303709360763E-03   0.00000000000000E+00   0.00000000000000E+00   2.55172364648191E-10  -2.11761905962601E-34
      2.55172364648191E-10   6.63855275578919E-18
      2.43801502521496E-02
      0.00000000000000E+00   4.42954553646250E-11   0.00000000000000E+00   0.00000000000000E+00  -2.91017579910432E-10
     -1.03110944019298E-34  -2.91017579910432E-10   6.52369961461148E-18   0.00000000000000E+00   0.00000000000000E+00
      0.00000000000000E+00   0.00000000000000E+00   0.00000000000000E+00   0.00000000000000E+00   0.00000000000000E+00
      2.01221245121803E-18   0.00000000000000E+00   0.00000000000000E+00   0.00000000000000E+00   0.00000000000000E+00
      1.02311372503517E-18   2.96376105395206E-34   1.02311372503517E-18  -1.51768649865294E-17   1.21900751260748E-03
      1.21900746805382E-03   0.00000000000000E+00   0.00000000000000E+00   2.91017578887318E-10  -1.93265161375908E-34
      2.91017578887318E-10   6.64095292069987E-18
      2.78114986106979E-02
      0.00000000000000E+00   5.02252465130367E-11   0.00000000000000E+00   0.00000000000000E+00  -3.29974688677391E-10
     -1.44308393950345E-34  -3.29974688677391E-10   6.52350204589042E-18   0.00000000000000E+00   0.00000000000000E+00
      0.00000000000000E+00   0.00000000000000E+00   0.00000000000000E+00   0.00000000000000E+00   0.00000000000000E+00
      2.00966485413292E-18   0.00000000000000E+00   0.00000000000000E+00   0.00000000000000E+00   0.00000000000000E+00
      1.30200428430754E-18   3.43195652033948E-34   1.30200428430754E-18  -1.51767601434337E-17   1.39057493053490E-03
      1.39057488001697E-03   0.00000000000000E+00   0.00000000000000E+00   3.29974687375387E-10  -1.98887258083603E-34
      3.29974687375387E-10   6.64359324341035E-18
      3.15859818051010E-02
      0.00000000000000E+00   5.66613616880404E-11   0.00000000000000E+00   0.00000000000000E+00  -3.72257919635928E-10
     -1.06051991509569E-34  -3.72257919635928E-10   6.52328472596231E-18   0.00000000000000E+00   0.00000000000000E+00
      0.00000000000000E+00   0.00000000000000E+00   0.00000000000000E+00   0.00000000000000E+00   0.00000000000000E+00
      2.00686260395708E-18   0.00000000000000E+00   0.00000000000000E+00   0.00000000000000E+00   0.00000000000000E+00
     -5.26628883890363E-17   2.81266852437732E-34  -5.26628883890363E-17  -1.51766450990170E-17   1.57929909025505E-03
      1.57929903326360E-03   0.00000000000000E+00   0.00000000000000E+00   3.72257972298816E-10  -1.75214860928163E-34
      3.72257972298816E-10   6.64649776909761E-18
      3.57379133189445E-02
      0.00000000000000E+00   6.36368468788671E-11   0.00000000000000E+00   0.00000000000000E+00  -4.18084156342714E-10
     -1.57365924586492E-34  -4.18084156342714E-10   6.52304568088280E-18   0.00000000000000E+00   0.00000000000000E+00
      0.00000000000000E+00   0.00000000000000E+00   0.00000000000000E+00   0.00000000000000E+00   0.00000000000000E+00
      2.00378025741411E-18   0.00000000000000E+00   0.00000000000000E+00   0.00000000000000E+00   0.00000000000000E+00
      3.34218395456557E-18   3.33108675373913E-34   3.34218395456557E-18  -1.51765188918366E-17   1.78689566594722E-03
      1.78689560193977E-03   0.00000000000000E+00   0.00000000000000E+00   4.18084153000530E-10  -1.75742750787421E-34
      4.18084153000530E-10   6.64969295353972E-18
      4.03050379841723E-02
      0.00000000000000E+00   7.11846697118068E-11   0.00000000000000E+00   0.00000000000000E+00  -4.67669901137712E-10
     -1.33001279409955E-34  -4.67669901137712E-10   6.52278273955482E-18   0.00000000000000E+00   0.00000000000000E+00
      0.00000000000000E+00   0.00000000000000E+00   0.00000000000000E+00   0.00000000000000E+00   0.00000000000000E+00
      2.00038983141451E-18   0.00000000000000E+00   0.00000000000000E+00   0.00000000000000E+00   0.00000000000000E+00
      3.33650606112766E-17   3.14046791796730E-34   3.33650606112766E-17  -1.51763804763952E-17   2.01525189920861E-03
      2.01525182760952E-03   0.00000000000000E+00   0.00000000000000E+00   4.67669867772652E-10  -1.81045512386775E-34
      4.67669867772652E-10   6.65320790542588E-18
      4.53288751159228E-02
      0.00000000000000E+00   7.93371700670098E-11   0.00000000000000E+00   0.00000000000000E+00  -5.21227346740979E-10
     -1.34557831816051E-34  -5.21227346740979E-10   6.52249351406155E-18   0.00000000000000E+00   0.00000000000000E+00
      0.00000000000000E+00   0.00000000000000E+00   0.00000000000000E+00   0.00000000000000E+00   0.00000000000000E+00
      1.99666054997611E-18   0.00000000000000E+00   0.00000000000000E+00   0.00000000000000E+00   0.00000000000000E+00
      8.72749215956716E-18   3.07123717398679E-34   8.72749215956716E-18  -1.51762287171824E-17   2.26644375579614E-03
      2.26644367599727E-03   0.00000000000000E+00   0.00000000000000E+00   5.21227338013487E-10  -1.72565885582628E-34
      5.21227338013487E-10   6.65707465314472E-18
      5.08550959608485E-02
      0.00000000000000E+00   8.81253185796912E-11   0.00000000000000E+00   0.00000000000000E+00  -5.78959932118609E-10
     -1.42252067410068E-34  -5.78959932118609E-10   6.52217537804325E-18   0.00000000000000E+00   0.00000000000000E+00
      0.00000000000000E+00   0.00000000000000E+00   0.00000000000000E+00   0.00000000000000E+00   0.00000000000000E+00
      1.99255856603086E-18   0.00000000000000E+00   0.00000000000000E+00   0.00000000000000E+00   0.00000000000000E+00
      2.90676029429759E-17   3.21017511129337E-34   2.90676029429759E-17  -1.51760623826354E-17   2.54275479804242E-03
      2.54275470940445E-03   0.00000000000000E+00   0.00000000000000E+00   5.78959903051006E-10  -1.78765443719268E-34
      5.78959903051006E-10   6.66132843856120E-18
      5.69339388902666E-02
      0.00000000000000E+00   9.75778706574134E-11   0.00000000000000E+00   0.00000000000000E+00  -6.41056284135317E-10
     -1.10983524524163E-34  -6.41056284135317E-10   6.52182544292260E-18   0.00000000000000E+00   0.00000000000000E+00
      0.00000000000000E+00   0.00000000000000E+00   0.00000000000000E+00   0.00000000000000E+00   0.00000000000000E+00
      1.98804665561833E-18   0.00000000000000E+00   0.00000000000000E+00   0.00000000000000E+00   0.00000000000000E+00
      1.88778642029095E-17   2.98990646063877E-34   1.88778642029095E-17  -1.51758801390712E-17   2.84669694451333E-03
      2.84669684636806E-03   0.00000000000000E+00   0.00000000000000E+00   6.41056265257453E-10  -1.88007121539715E-34
      6.41056265257453E-10   6.66600804053028E-18
      6.36206661126266E-02
      0.00000000000000E+00   1.07720331330915E-10   0.00000000000000E+00   0.00000000000000E+00  -7.07683705786653E-10
     -1.17248502338868E-34  -7.07683705786653E-10   6.52144053176615E-18   0.00000000000000E+00   0.00000000000000E+00
      0.00000000000000E+00   0.00000000000000E+00   0.00000000000000E+00   0.00000000000000E+00   0.00000000000000E+00
      1.98308388175945E-18   0.00000000000000E+00   0.00000000000000E+00   0.00000000000000E+00   0.00000000000000E+00
      3.79186208200854E-17   2.81804710553516E-34   3.79186208200854E-17  -1.51756805447247E-17   3.18103330563133E-03
      3.18103319728491E-03   0.00000000000000E+00   0.00000000000000E+00   7.07683667868033E-10  -1.64556208214648E-34
      7.07683667868033E-10   6.67115613119909E-18
      7.09760660572226E-02
      0.00000000000000E+00   1.18573732623711E-10   0.00000000000000E+00   0.00000000000000E+00  -7.78980182273007E-10
     -1.55873855911452E-34  -7.78980182273007E-10   6.52101715054606E-18   0.00000000000000E+00   0.00000000000000E+00
      0.00000000000000E+00   0.00000000000000E+00   0.00000000000000E+00   0.00000000000000E+00   0.00000000000000E+00
      1.97762522496794E-18   0.00000000000000E+00   0.00000000000000E+00   0.00000000000000E+00   0.00000000000000E+00
      1.01471733239882E-16   3.31902666447141E-34   1.01471733239882E-16  -1.51754620439486E-17   3.54880330286113E-03
      3.54880318359856E-03   0.00000000000000E+00   0.00000000000000E+00   7.78980080801274E-10  -1.76028810535688E-34
      7.78980080801274E-10   6.67681966843457E-18
      7.90670059962782E-02
      0.00000000000000E+00   1.30153247033604E-10   0.00000000000000E+00   0.00000000000000E+00  -8.55044943902419E-10
     -1.65834875299462E-34  -8.55044943902419E-10   6.52055145654998E-18   0.00000000000000E+00   0.00000000000000E+00
      0.00000000000000E+00   0.00000000000000E+00   0.00000000000000E+00   0.00000000000000E+00   0.00000000000000E+00
      1.97162117724944E-18   0.00000000000000E+00   0.00000000000000E+00   0.00000000000000E+00   0.00000000000000E+00
      7.81706190933729E-17   3.38633151944864E-34   7.81706190933729E-17  -1.51752229619447E-17   3.95335029981391E-03
      3.95335016890495E-03   0.00000000000000E+00   0.00000000000000E+00   8.55044865731800E-10  -1.72798276645401E-34
      8.55044865731800E-10   6.68305032814523E-18
      8.79670399292394E-02
      0.00000000000000E+00   1.42466576036724E-10   0.00000000000000E+00   0.00000000000000E+00  -9.35928498619723E-10
     -1.42407207427858E-34  -9.35928498619723E-10   6.52003922365218E-18   0.00000000000000E+00   0.00000000000000E+00
      0.00000000000000E+00   0.00000000000000E+00   0.00000000000000E+00   0.00000000000000E+00   0.00000000000000E+00
      1.96501729587698E-18   0.00000000000000E+00   0.00000000000000E+00   0.00000000000000E+00   0.00000000000000E+00
      3.67792136054357E-17   3.12092265319040E-34   3.67792136054357E-17  -1.51749615000854E-17   4.39835199646197E-03
      4.39835185316865E-03   0.00000000000000E+00   0.00000000000000E+00   9.35928461840510E-10  -1.69685057891181E-34
      9.35928461840510E-10   6.68990498055623E-18
      9.77570772554967E-02
      0.00000000000000E+00   1.55512271603887E-10   0.00000000000000E+00   0.00000000000000E+00  -1.02162101833090E-09
     -1.08351664883043E-34  -1.02162101833090E-09   6.51947580413328E-18   0.00000000000000E+00   0.00000000000000E+00
      0.00000000000000E+00   0.00000000000000E+00   0.00000000000000E+00   0.00000000000000E+00   0.00000000000000E+00
      1.95775371294415E-18   0.00000000000000E+00   0.00000000000000E+00   0.00000000000000E+00   0.00000000000000E+00
      1.60095114513973E-16   2.74211647711156E-34   1.60095114513973E-16  -1.51746757320152E-17   4.88785386277484E-03
      4.88785370636067E-03   0.00000000000000E+00   0.00000000000000E+00   1.02162085823579E-09  -1.65859982828113E-34
      1.02162085823579E-09   6.69744621493774E-18
      1.07757077255497E-01
      0.00000000000000E+00   1.68314600525369E-10   0.00000000000000E+00   0.00000000000000E+00  -1.10571309753826E-09
     -1.21272118323926E-34  -1.10571309753826E-09   6.51890034058889E-18   0.00000000000000E+00   0.00000000000000E+00
      0.00000000000000E+00   0.00000000000000E+00   0.00000000000000E+00   0.00000000000000E+00   0.00000000000000E+00
      1.95033508857628E-18   0.00000000000000E+00   0.00000000000000E+00   0.00000000000000E+00   0.00000000000000E+00
      1.55051689012342E-16   2.79431738607295E-34   1.55051689012342E-16  -1.51743858145794E-17   5.38785386277483E-03
      5.38785369348468E-03   0.00000000000000E+00   0.00000000000000E+00   1.10571294248657E-09  -1.58159620283369E-34
      1.10571294248657E-09   6.70515038541426E-18
      1.17757077255497E-01
      0.00000000000000E+00   1.80605500032527E-10   0.00000000000000E+00   0.00000000000000E+00  -1.18644446894303E-09
     -1.31228632490172E-34  -1.18644446894303E-09   6.51832491656113E-18   0.00000000000000E+00   0.00000000000000E+00
      0.00000000000000E+00   0.00000000000000E+00   0.00000000000000E+00   0.00000000000000E+00   0.00000000000000E+00
      1.94291720415718E-18   0.00000000000000E+00   0.00000000000000E+00   0.00000000000000E+00   0.00000000000000E+00
      1.99546789538689E-16   2.94009786699167E-34   1.99546789538689E-16  -1.51740978863574E-17   5.88785386277483E-03
      5.88785368112317E-03   0.00000000000000E+00   0.00000000000000E+00   1.18644426939624E-09  -1.62781154208994E-34
      1.18644426939624E-09   6.71285576563905E-18
      1.27757077255497E-01
      0.00000000000000E+00   1.92402220505018E-10   0.00000000000000E+00   0.00000000000000E+00  -1.26392851495081E-09
     -1.15383954812861E-34  -1.26392851495081E-09   6.51774953175853E-18   0.00000000000000E+00   0.00000000000000E+00
      0.00000000000000E+00   0.00000000000000E+00   0.00000000000000E+00   0.00000000000000E+00   0.00000000000000E+00
      1.93550005436410E-18   0.00000000000000E+00   0.00000000000000E+00   0.00000000000000E+00   0.00000000000000E+00
      1.61967405635163E-16   2.69651893109211E-34   1.61967405635163E-16  -1.51738119362102E-17   6.38785386277483E-03
      6.38785366925878E-03   0.00000000000000E+00   0.00000000000000E+00   1.26392835298340E-09  -1.54267938296350E-34
      1.26392835298340E-09   6.72056235008753E-18
      1.37757077255497E-01
      0.00000000000000E+00   2.03721750691388E-10   0.00000000000000E+00   0.00000000000000E+00  -1.33827729478030E-09
     -1.50983659721007E-34  -1.33827729478030E-09   6.51717418588781E-18   0.00000000000000E+00   0.00000000000000E+00
      0.00000000000000E+00   0.00000000000000E+00   0.00000000000000E+00   0.00000000000000E+00   0.00000000000000E+00
      1.92808363389798E-18   0.00000000000000E+00   0.00000000000000E+00   0.00000000000000E+00   0.00000000000000E+00
      1.36677456033569E-16   2.87373658962610E-34   1.36677456033569E-16  -1.51735279530408E-17   6.88785386277483E-03
      6.88785365787439E-03   0.00000000000000E+00   0.00000000000000E+00   1.33827715810284E-09  -1.36389999241603E-34
      1.33827715810284E-09   6.72827013325497E-18
      1.47757077255497E-01
      0.00000000000000E+00   2.14580803805971E-10   0.00000000000000E+00   0.00000000000000E+00  -1.40960074683271E-09
     -1.31087852426104E-34  -1.40960074683271E-09   6.51659887865891E-18   0.00000000000000E+00   0.00000000000000E+00
      0.00000000000000E+00   0.00000000000000E+00   0.00000000000000E+00   0.00000000000000E+00   0.00000000000000E+00
      1.92066793754210E-18   0.00000000000000E+00   0.00000000000000E+00   0.00000000000000E+00   0.00000000000000E+00
      1.33244022857809E-16   2.85529004559515E-34   1.33244022857809E-16  -1.51732459258994E-17   7.38785386277483E-03
      7.38785364695322E-03   0.00000000000000E+00   0.00000000000000E+00   1.40960061358869E-09  -1.54441152133411E-34
      1.40960061358869E-09   6.73597910969839E-18
      1.57757077255497E-01
      0.00000000000000E+00   2.24995711359746E-10   0.00000000000000E+00   0.00000000000000E+00  -1.47800640110975E-09
     -1.45831840553561E-34  -1.47800640110975E-09   6.51602360977985E-18   0.00000000000000E+00   0.00000000000000E+00
      0.00000000000000E+00   0.00000000000000E+00   0.00000000000000E+00   0.00000000000000E+00   0.00000000000000E+00
      1.91325296011862E-18   0.00000000000000E+00   0.00000000000000E+00   0.00000000000000E+00   0.00000000000000E+00
      2.10289194093912E-19   2.96075651585413E-34   2.10289194093913E-19  -1.51729658438994E-17   7.88785386277484E-03
      7.88785363647882E-03   0.00000000000000E+00   0.00000000000000E+00   1.47800640089946E-09  -1.50243811031852E-34
      1.47800640089946E-09   6.74368927400094E-18
      1.67757077255497E-01
      0.00000000000000E+00   2.34982513741151E-10   0.00000000000000E+00   0.00000000000000E+00  -1.54360009565477E-09
     -1.60331511207628E-34  -1.54360009565477E-09   6.51544837895577E-18   0.00000000000000E+00   0.00000000000000E+00
      0.00000000000000E+00   0.00000000000000E+00   0.00000000000000E+00   0.00000000000000E+00   0.00000000000000E+00
      1.90583869644117E-18   0.00000000000000E+00   0.00000000000000E+00   0.00000000000000E+00   0.00000000000000E+00
      1.40745790895323E-16   3.09242054140392E-34   1.40745790895323E-16  -1.51726876961418E-17   8.38785386277484E-03
      8.38785362643506E-03   0.00000000000000E+00   0.00000000000000E+00   1.54359995490898E-09  -1.48910542932763E-34
      1.54359995490898E-09   6.75140062074486E-18
      1.77757077255497E-01
      0.00000000000000E+00   2.44556857417390E-10   0.00000000000000E+00   0.00000000000000E+00  -1.60648463507474E-09
     -1.57670652803972E-34  -1.60648463507474E-09   6.51487318589063E-18   0.00000000000000E+00   0.00000000000000E+00
      0.00000000000000E+00   0.00000000000000E+00   0.00000000000000E+00   0.00000000000000E+00   0.00000000000000E+00
      1.89842514129040E-18   0.00000000000000E+00   0.00000000000000E+00   0.00000000000000E+00   0.00000000000000E+00
      1.64144518837707E-16   3.06378622807467E-34   1.64144518837707E-16  -1.51724114717257E-17   8.88785386277484E-03
      8.88785361680620E-03   0.00000000000000E+00   0.00000000000000E+00   1.60648447093022E-09  -1.48707970003495E-34
      1.60648447093022E-09   6.75911314454453E-18
      1.87757077255497E-01
      0.00000000000000E+00   2.53733915307572E-10   0.00000000000000E+00   0.00000000000000E+00  -1.66676051801289E-09
     -1.24221553273655E-34  -1.66676051801289E-09   6.51429803028886E-18   0.00000000000000E+00   0.00000000000000E+00
      0.00000000000000E+00   0.00000000000000E+00   0.00000000000000E+00   0.00000000000000E+00   0.00000000000000E+00
      1.89101228951515E-18   0.00000000000000E+00   0.00000000000000E+00   0.00000000000000E+00   0.00000000000000E+00
      1.26783679405405E-16   2.66617616660182E-34   1.26783679405405E-16  -1.51721371598416E-17   9.38785386277484E-03
      9.38785360757685E-03   0.00000000000000E+00   0.00000000000000E+00   1.66676039122921E-09  -1.42396063386526E-34
      1.66676039122921E-09   6.76682684003758E-18
      1.97757077255497E-01
      0.00000000000000E+00   2.62528698127945E-10   0.00000000000000E+00   0.00000000000000E+00  -1.72452542715735E-09