DF-ISE text

Info {
  version   = 1.0
  type      = xyplot
  datasets  = [
    "time"
    "source OuterVoltage" "source InnerVoltage" "source QuasiFermiPotential" "source DisplacementCurrent" "source eCurrent"
    "source hCurrent" "source TotalCurrent" "source Charge" "gate OuterVoltage" "gate InnerVoltage"
    "gate QuasiFermiPotential" "gate DisplacementCurrent" "gate eCurrent" "gate hCurrent" "gate TotalCurrent"
    "gate Charge" "substrate OuterVoltage" "substrate InnerVoltage" "substrate QuasiFermiPotential" "substrate DisplacementCurrent"
    "substrate eCurrent" "substrate hCurrent" "substrate TotalCurrent" "substrate Charge" "drain OuterVoltage"
    "drain InnerVoltage" "drain QuasiFermiPotential" "drain DisplacementCurrent" "drain eCurrent" "drain hCurrent"
    "drain TotalCurrent" "drain Charge" ]
  functions = [
    Time
    OuterVoltage InnerVoltage QuasiFermiPotential DisplacementCurrent eCurrent
    hCurrent TotalCurrent Charge OuterVoltage InnerVoltage
    QuasiFermiPotential DisplacementCurrent eCurrent hCurrent TotalCurrent
    Charge OuterVoltage InnerVoltage QuasiFermiPotential DisplacementCurrent
    eCurrent hCurrent TotalCurrent Charge OuterVoltage
    InnerVoltage QuasiFermiPotential DisplacementCurrent eCurrent hCurrent
    TotalCurrent Charge ]
}

Data {
      0.00000000000000E+00
      0.00000000000000E+00   0.00000000000000E+00   0.00000000000000E+00   0.00000000000000E+00  -1.01048315664222E-21
      3.05676884054664E-34  -1.01048315664191E-21   5.89297543730110E-18   0.00000000000000E+00   0.00000000000000E+00
      0.00000000000000E+00   0.00000000000000E+00   0.00000000000000E+00   0.00000000000000E+00   0.00000000000000E+00
      2.27090451612467E-18   0.00000000000000E+00   0.00000000000000E+00   0.00000000000000E+00   0.00000000000000E+00
     -1.66226866001781E-19  -5.81904140813639E-34  -1.66226866001781E-19  -1.43900632015733E-17   0.00000000000000E+00
      0.00000000000000E+00   0.00000000000000E+00   0.00000000000000E+00   1.67237349158423E-19   2.76227256758975E-34
      1.67237349158423E-19   6.22618324814754E-18
      0.00000000000000E+00
      0.00000000000000E+00   4.59223686037634E-19   0.00000000000000E+00   0.00000000000000E+00  -5.02746438460000E-19
      2.96049539376074E-34  -5.02746438460000E-19   5.88859803303776E-18   0.00000000000000E+00   0.00000000000000E+00
      0.00000000000000E+00   0.00000000000000E+00   0.00000000000000E+00   0.00000000000000E+00   0.00000000000000E+00
      2.26427255876000E-18   0.00000000000000E+00   0.00000000000000E+00   0.00000000000000E+00   0.00000000000000E+00
      5.48566325930523E-19  -5.42091118509880E-34   5.48566325930522E-19  -1.43750247258314E-17   0.00000000000000E+00
     -4.59223686037634E-19   0.00000000000000E+00   0.00000000000000E+00  -4.58198874705230E-20   2.46041579133806E-34
     -4.58198874705228E-20   6.22215413403362E-18
      1.00000000000000E-03
      0.00000000000000E+00   1.08975870164502E-11   0.00000000000000E+00   0.00000000000000E+00  -6.13660288292465E-11
      3.37714382685507E-34  -6.13660288292465E-11   5.88817494403971E-18   0.00000000000000E+00   0.00000000000000E+00
      0.00000000000000E+00   0.00000000000000E+00   0.00000000000000E+00   0.00000000000000E+00   0.00000000000000E+00
      2.25848367971050E-18   0.00000000000000E+00   0.00000000000000E+00   0.00000000000000E+00   0.00000000000000E+00
     -2.63713848415451E-20  -5.91424675108377E-34  -2.63713848415457E-20  -1.43748331894055E-17   4.30000000000000E-04
      4.29999989002209E-04   0.00000000000000E+00   0.00000000000000E+00   6.13660288556179E-11   2.53710292422870E-34
      6.13660288556179E-11   6.22817456565534E-18
      2.08666666666667E-03
      0.00000000000000E+00   2.23847088689828E-11   0.00000000000000E+00   0.00000000000000E+00  -1.26050452666123E-10
      2.66276640321929E-34  -1.26050452666123E-10   5.88771521072010E-18   0.00000000000000E+00   0.00000000000000E+00
      0.00000000000000E+00   0.00000000000000E+00   0.00000000000000E+00   0.00000000000000E+00   0.00000000000000E+00
      2.25219358657890E-18   0.00000000000000E+00   0.00000000000000E+00   0.00000000000000E+00   0.00000000000000E+00
      7.94789829798139E-17  -5.41897639367806E-34   7.94789829798139E-17  -1.43746263611227E-17   8.97266666666667E-04
      8.97266644076204E-04   0.00000000000000E+00   0.00000000000000E+00   1.26050373187140E-10   2.75620999045878E-34
      1.26050373187140E-10   6.23471756382370E-18
      3.28200000000000E-03
      0.00000000000000E+00   3.45859754455805E-11   0.00000000000000E+00   0.00000000000000E+00  -1.94754423122906E-10
      2.82385219050395E-34  -1.94754423122906E-10   5.88720953215456E-18   0.00000000000000E+00   0.00000000000000E+00
      0.00000000000000E+00   0.00000000000000E+00   0.00000000000000E+00   0.00000000000000E+00   0.00000000000000E+00
      2.24527506817921E-18   0.00000000000000E+00   0.00000000000000E+00   0.00000000000000E+00   0.00000000000000E+00
      1.14623288984198E-16  -5.24756027824871E-34   1.14623288984198E-16  -1.43744004150510E-17   1.41126000000000E-03
      1.41125996509626E-03   0.00000000000000E+00   0.00000000000000E+00   1.94754308499617E-10   2.42370808774476E-34
      1.94754308499617E-10   6.24191581471728E-18
      4.59686666666667E-03
      0.00000000000000E+00   4.74854907183510E-11   0.00000000000000E+00   0.00000000000000E+00  -2.67387642062072E-10
      3.09198107554818E-34  -2.67387642062072E-10   5.88665331954980E-18   0.00000000000000E+00   0.00000000000000E+00
      0.00000000000000E+00   0.00000000000000E+00   0.00000000000000E+00   0.00000000000000E+00   0.00000000000000E+00
      2.23766539950461E-18   0.00000000000000E+00   0.00000000000000E+00   0.00000000000000E+00   0.00000000000000E+00
      1.69120818336386E-16  -5.70586081613343E-34   1.69120818336386E-16  -1.43741537570469E-17   1.97665266666667E-03
      1.97665261874505E-03   0.00000000000000E+00   0.00000000000000E+00   2.67387472941254E-10   2.61387974058524E-34
      2.67387472941254E-10   6.24983503799252E-18
      6.04322000000000E-03
      0.00000000000000E+00   6.10557618836586E-11   0.00000000000000E+00   0.00000000000000E+00  -3.43794586165603E-10
      2.82519094327733E-34  -3.43794586165603E-10   5.88604152633180E-18   0.00000000000000E+00   0.00000000000000E+00
      0.00000000000000E+00   0.00000000000000E+00   0.00000000000000E+00   0.00000000000000E+00   0.00000000000000E+00
      2.22929560609655E-18   0.00000000000000E+00   0.00000000000000E+00   0.00000000000000E+00   0.00000000000000E+00
      2.63724546619136E-16  -5.21461511419861E-34   2.63724546619136E-16  -1.43738846967217E-17   2.59858460000000E-03
      2.59858453838369E-03   0.00000000000000E+00   0.00000000000000E+00   3.43794322441057E-10   2.38942417092128E-34
      3.43794322441057E-10   6.25854756429341E-18
      7.63420866666667E-03
      0.00000000000000E+00   7.52549926977187E-11   0.00000000000000E+00   0.00000000000000E+00  -4.23739271870671E-10
      3.25478714287999E-34  -4.23739271870671E-10   5.88536860257912E-18   0.00000000000000E+00   0.00000000000000E+00
      0.00000000000000E+00   0.00000000000000E+00   0.00000000000000E+00   0.00000000000000E+00   0.00000000000000E+00
      2.22008984346779E-18   0.00000000000000E+00   0.00000000000000E+00   0.00000000000000E+00   0.00000000000000E+00
      3.60990116266201E-16  -5.62261348515414E-34   3.60990116266201E-16  -1.43735914500168E-17   3.28270972666667E-03
      3.28270965072101E-03   0.00000000000000E+00   0.00000000000000E+00   4.23738910880555E-10   2.36782634227415E-34
      4.23738910880555E-10   6.26813300396997E-18
      9.38429620000000E-03
      0.00000000000000E+00   9.00249637000628E-11   0.00000000000000E+00   0.00000000000000E+00  -5.06893353199537E-10
      2.91094374565889E-34  -5.06893353199537E-10   5.88462844492707E-18   0.00000000000000E+00   0.00000000000000E+00
      0.00000000000000E+00   0.00000000000000E+00   0.00000000000000E+00   0.00000000000000E+00   0.00000000000000E+00
      2.20996471513489E-18   0.00000000000000E+00   0.00000000000000E+00   0.00000000000000E+00   0.00000000000000E+00
      5.38510568992252E-16  -5.22202687546482E-34   5.38510568992252E-16  -1.43732721441323E-17   4.03524736600000E-03
      4.03524727514912E-03   0.00000000000000E+00   0.00000000000000E+00   5.06892814688968E-10   2.31108312980592E-34
      5.06892814688968E-10   6.27867898407043E-18
      1.13093924866667E-02
      0.00000000000000E+00   1.05289180164413E-10   0.00000000000000E+00   0.00000000000000E+00  -5.92825590980834E-10
      2.91891456337711E-34  -5.92825590980834E-10   5.88381434150050E-18   0.00000000000000E+00   0.00000000000000E+00
      0.00000000000000E+00   0.00000000000000E+00   0.00000000000000E+00   0.00000000000000E+00   0.00000000000000E+00
      2.19882852337962E-18   0.00000000000000E+00   0.00000000000000E+00   0.00000000000000E+00   0.00000000000000E+00
      7.64862915146449E-16  -5.19111770557035E-34   7.64862915146449E-16  -1.43729248255805E-17   4.86303876926667E-03
      4.86303866301188E-03   0.00000000000000E+00   0.00000000000000E+00   5.92824826117918E-10   2.27220314219324E-34
      5.92824826117918E-10   6.29028196070036E-18
      1.34269984020000E-02
      0.00000000000000E+00   1.20951353905175E-10   0.00000000000000E+00   0.00000000000000E+00  -6.80993193198240E-10
      2.89471552041218E-34  -6.80993193198240E-10   5.88291891138239E-18   0.00000000000000E+00   0.00000000000000E+00
      0.00000000000000E+00   0.00000000000000E+00   0.00000000000000E+00   0.00000000000000E+00   0.00000000000000E+00
      2.18658044605493E-18   0.00000000000000E+00   0.00000000000000E+00   0.00000000000000E+00   0.00000000000000E+00
      5.81881059116506E-20  -5.15592170121653E-34   5.81881059116500E-20  -1.43725474719962E-17   5.77360931286000E-03
      5.77360919079996E-03   0.00000000000000E+00   0.00000000000000E+00   6.80993193140053E-10   2.26120618080434E-34
      6.80993193140053E-10   6.30304811455886E-18
      1.57422475360978E-02
      0.00000000000000E+00   1.36802166633240E-10   0.00000000000000E+00   0.00000000000000E+00  -7.70218755952528E-10
      2.93934247048222E-34  -7.70218755952528E-10   5.88194000669186E-18   0.00000000000000E+00   0.00000000000000E+00
      0.00000000000000E+00   0.00000000000000E+00   0.00000000000000E+00   0.00000000000000E+00   0.00000000000000E+00
      2.17319126694892E-18   0.00000000000000E+00   0.00000000000000E+00   0.00000000000000E+00   0.00000000000000E+00
     -2.65773687996220E-19  -4.97660417837174E-34  -2.65773687996221E-19  -1.43721404724150E-17   6.76916644052205E-03
      6.76916630246638E-03   0.00000000000000E+00   0.00000000000000E+00   7.70218756218302E-10   2.03726170788952E-34
      7.70218756218302E-10   6.31700919877421E-18
      1.82735865893780E-02
      0.00000000000000E+00   1.52712150333252E-10   0.00000000000000E+00   0.00000000000000E+00  -8.59773634789647E-10
      2.92854102042771E-34  -8.59773634789647E-10   5.88086985397538E-18   0.00000000000000E+00   0.00000000000000E+00
      0.00000000000000E+00   0.00000000000000E+00   0.00000000000000E+00   0.00000000000000E+00   0.00000000000000E+00
      2.15855485025807E-18   0.00000000000000E+00   0.00000000000000E+00   0.00000000000000E+00   0.00000000000000E+00
      1.51838768250571E-18  -4.67069855723242E-34   1.51838768250571E-18  -1.43717020749263E-17   7.85764223343255E-03
      7.85764207932169E-03   0.00000000000000E+00   0.00000000000000E+00   8.59773633271259E-10   1.74215753680471E-34
      8.59773633271259E-10   6.33227737069277E-18
      2.10411839542978E-02
      0.00000000000000E+00   1.68537096368754E-10   0.00000000000000E+00   0.00000000000000E+00  -9.48847192251189E-10
      2.99418628514242E-34  -9.48847192251189E-10   5.87969995712861E-18   0.00000000000000E+00   0.00000000000000E+00
      0.00000000000000E+00   0.00000000000000E+00   0.00000000000000E+00   0.00000000000000E+00   0.00000000000000E+00
      2.14255521621984E-18   0.00000000000000E+00   0.00000000000000E+00   0.00000000000000E+00   0.00000000000000E+00
      5.18936798692863E-19  -4.80914000547768E-34   5.18936798692862E-19  -1.43712305411313E-17   9.04770910034803E-03
      9.04770893026794E-03   0.00000000000000E+00   0.00000000000000E+00   9.48847191732252E-10   1.81495372033526E-34
      9.48847191732252E-10   6.34897536778291E-18
      2.40670904066100E-02
      0.00000000000000E+00   1.84120589478492E-10   0.00000000000000E+00   0.00000000000000E+00  -1.03656084071919E-09
      2.95959215733914E-34  -1.03656084071919E-09   5.87842103034402E-18   0.00000000000000E+00   0.00000000000000E+00
      0.00000000000000E+00   0.00000000000000E+00   0.00000000000000E+00   0.00000000000000E+00   0.00000000000000E+00
      2.12506563154112E-18   0.00000000000000E+00   0.00000000000000E+00   0.00000000000000E+00   0.00000000000000E+00
     -7.59439757523945E-19  -4.81071541109254E-34  -7.59439757523945E-19  -1.43707241756226E-17   1.03488488748423E-02
      1.03488486890368E-02   0.00000000000000E+00   0.00000000000000E+00   1.03656084147863E-09   1.85112325375341E-34
      1.03656084147863E-09   6.36723751373747E-18
      2.73754147944714E-02
      0.00000000000000E+00   1.99297789942694E-10   0.00000000000000E+00   0.00000000000000E+00  -1.12198933689172E-09
      3.31703684463107E-34  -1.12198933689172E-09   5.87702292485585E-18   0.00000000000000E+00   0.00000000000000E+00
      0.00000000000000E+00   0.00000000000000E+00   0.00000000000000E+00   0.00000000000000E+00   0.00000000000000E+00
      2.10594761633394E-18   0.00000000000000E+00   0.00000000000000E+00   0.00000000000000E+00   0.00000000000000E+00
     -7.88298173286502E-19  -5.01858838326714E-34  -7.88298173286503E-19  -1.43701813626091E-17   1.17714283616227E-02
      1.17714281605019E-02   0.00000000000000E+00   0.00000000000000E+00   1.12198933768002E-09   1.70155153863607E-34
      1.12198933768002E-09   6.38721082141930E-18
      3.09925161251998E-02
      0.00000000000000E+00   2.13900624647609E-10   0.00000000000000E+00   0.00000000000000E+00  -1.20419051998185E-09
      3.03454862859271E-34  -1.20419051998185E-09   5.87549454887702E-18   0.00000000000000E+00   0.00000000000000E+00
      0.00000000000000E+00   0.00000000000000E+00   0.00000000000000E+00   0.00000000000000E+00   0.00000000000000E+00
      2.08504985934583E-18   0.00000000000000E+00   0.00000000000000E+00   0.00000000000000E+00   0.00000000000000E+00
     -8.83773124868151E-19  -4.64753500098926E-34  -8.83773124868152E-19  -1.43696006100084E-17   1.33267819338359E-02
      1.33267817179797E-02   0.00000000000000E+00   0.00000000000000E+00   1.20419052086562E-09   1.61298637239656E-34
      1.20419052086562E-09   6.40905620178550E-18
      3.49472135801296E-02
      0.00000000000000E+00   2.27764696565099E-10   0.00000000000000E+00   0.00000000000000E+00  -1.28224384469496E-09
      3.16653245877670E-34  -1.28224384469496E-09   5.87382378008519E-18   0.00000000000000E+00   0.00000000000000E+00
      0.00000000000000E+00   0.00000000000000E+00   0.00000000000000E+00   0.00000000000000E+00   0.00000000000000E+00
      2.06220703278842E-18   0.00000000000000E+00   0.00000000000000E+00   0.00000000000000E+00   0.00000000000000E+00
      1.97036200930329E-18  -4.66661308962307E-34   1.97036200930329E-18  -1.43689806017097E-17   1.50273018394557E-02
      1.50273016096099E-02   0.00000000000000E+00   0.00000000000000E+00   1.28224384272460E-09   1.50008063084637E-34
      1.28224384272460E-09   6.43294978883613E-18
      3.92710161308528E-02
      0.00000000000000E+00   2.40737520929438E-10   0.00000000000000E+00   0.00000000000000E+00  -1.35529729653580E-09
      2.97657208611134E-34  -1.35529729653580E-09   5.87199736997218E-18   0.00000000000000E+00   0.00000000000000E+00
      0.00000000000000E+00   0.00000000000000E+00   0.00000000000000E+00   0.00000000000000E+00   0.00000000000000E+00
      2.03723849796695E-18   0.00000000000000E+00   0.00000000000000E+00   0.00000000000000E+00   0.00000000000000E+00
     -2.00619851712159E-18  -4.47677243458101E-34  -2.00619851712159E-18  -1.43683202601338E-17   1.68865369362667E-02
      1.68865366933309E-02   0.00000000000000E+00   0.00000000000000E+00   1.35529729854200E-09   1.50020034846967E-34
      1.35529729854200E-09   6.45908439219469E-18
      4.39983735863102E-02
      0.00000000000000E+00   2.52688449979618E-10   0.00000000000000E+00   0.00000000000000E+00  -1.42262314770201E-09
      3.11277899765888E-34  -1.42262314770201E-09   5.87000083927488E-18   0.00000000000000E+00   0.00000000000000E+00
      0.00000000000000E+00   0.00000000000000E+00   0.00000000000000E+00   0.00000000000000E+00   0.00000000000000E+00
      2.00994689059766E-18   0.00000000000000E+00   0.00000000000000E+00   0.00000000000000E+00   0.00000000000000E+00
      1.09929249449948E-18  -4.45751720047412E-34   1.09929249449948E-18  -1.43676188189069E-17   1.89193006421134E-02
      1.89193003871193E-02   0.00000000000000E+00   0.00000000000000E+00   1.42262314660271E-09   1.34473820281524E-34
      1.42262314660271E-09   6.48767108903440E-18
      4.91669510709436E-02
      0.00000000000000E+00   2.63519642435541E-10   0.00000000000000E+00   0.00000000000000E+00  -1.48367986818063E-09
      3.08435051795107E-34  -1.48367986818063E-09   5.86781836365293E-18   0.00000000000000E+00   0.00000000000000E+00
      0.00000000000000E+00   0.00000000000000E+00   0.00000000000000E+00   0.00000000000000E+00   0.00000000000000E+00
      1.98011657522214E-18   0.00000000000000E+00   0.00000000000000E+00   0.00000000000000E+00   0.00000000000000E+00
     -1.05575590789831E-18  -4.38647026097077E-34  -1.05575590789831E-18  -1.43668759078684E-17   2.11417889605057E-02
      2.11417886945840E-02   0.00000000000000E+00   0.00000000000000E+00   1.48367986923639E-09   1.30211974301969E-34
      1.48367986923639E-09   6.51894096899329E-18
      5.48179291208094E-02
      0.00000000000000E+00   2.73177769568994E-10   0.00000000000000E+00   0.00000000000000E+00  -1.53817798797745E-09
      2.71659482979481E-34  -1.53817798797745E-09   5.86543264865040E-18   0.00000000000000E+00   0.00000000000000E+00
      0.00000000000000E+00   0.00000000000000E+00   0.00000000000000E+00   0.00000000000000E+00   0.00000000000000E+00
      1.94751195549029E-18   0.00000000000000E+00   0.00000000000000E+00   0.00000000000000E+00   0.00000000000000E+00
     -1.56817883133478E-18  -3.83518955073751E-34  -1.56817883133478E-18  -1.43660916503811E-17   2.35717095219481E-02
      2.35717092462835E-02   0.00000000000000E+00   0.00000000000000E+00   1.53817798954563E-09   1.11859472094270E-34
      1.53817798954563E-09   6.55314704624043E-18
      6.09963317886627E-02
      0.00000000000000E+00   2.81665916903924E-10   0.00000000000000E+00   0.00000000000000E+00  -1.58614656767050E-09
      2.90214288657261E-34  -1.58614656767050E-09   5.86282479294046E-18   0.00000000000000E+00   0.00000000000000E+00
      0.00000000000000E+00   0.00000000000000E+00   0.00000000000000E+00   0.00000000000000E+00   0.00000000000000E+00
      1.91187562435209E-18   0.00000000000000E+00   0.00000000000000E+00   0.00000000000000E+00   0.00000000000000E+00
     -1.88633588848006E-18  -3.88087879560027E-34  -1.88633588848006E-18  -1.43652667712182E-17   2.62284226691250E-02
      2.62284223848995E-02   0.00000000000000E+00   0.00000000000000E+00   1.58614656955683E-09   9.78735909027657E-35
      1.58614656955683E-09   6.59056635392561E-18
      6.77513853721824E-02
      0.00000000000000E+00   2.89052393963628E-10   0.00000000000000E+00   0.00000000000000E+00  -1.62798301579557E-09
      3.04614354522382E-34  -1.62798301579557E-09   5.85997413882436E-18   0.00000000000000E+00   0.00000000000000E+00
      0.00000000000000E+00   0.00000000000000E+00   0.00000000000000E+00   0.00000000000000E+00   0.00000000000000E+00
      1.87292634493533E-18   0.00000000000000E+00   0.00000000000000E+00   0.00000000000000E+00   0.00000000000000E+00
     -1.99530675866716E-18  -3.97283023240809E-34  -1.99530675866716E-18  -1.43644027234424E-17   2.91330957100384E-02
      2.91330954183655E-02   0.00000000000000E+00   0.00000000000000E+00   1.62798301779088E-09   9.26686687184276E-35
      1.62798301779088E-09   6.63150223968275E-18
      7.51369106234972E-02
      0.00000000000000E+00   2.95476753774833E-10   0.00000000000000E+00   0.00000000000000E+00  -1.66448577200005E-09
      3.13545685830661E-34  -1.66448577200005E-09   5.85685810855129E-18   0.00000000000000E+00   0.00000000000000E+00
      0.00000000000000E+00   0.00000000000000E+00   0.00000000000000E+00   0.00000000000000E+00   0.00000000000000E+00
      1.83035683521978E-18   0.00000000000000E+00   0.00000000000000E+00   0.00000000000000E+00   0.00000000000000E+00
      1.34659386948139E-19  -3.99634920991144E-34   1.34659386948139E-19  -1.43635018210101E-17   3.23088715681038E-02
      3.23088712699568E-02   0.00000000000000E+00   0.00000000000000E+00   1.66448577186540E-09   8.60892351604830E-35
      1.66448577186540E-09   6.67628687723907E-18
      8.32117515649347E-02
      0.00000000000000E+00   3.01148678331808E-10   0.00000000000000E+00   0.00000000000000E+00  -1.69684753649525E-09
      2.96365346926602E-34  -1.69684753649525E-09   5.85345202542379E-18   0.00000000000000E+00   0.00000000000000E+00
      0.00000000000000E+00   0.00000000000000E+00   0.00000000000000E+00   0.00000000000000E+00   0.00000000000000E+00
      1.78383134829014E-18   0.00000000000000E+00   0.00000000000000E+00   0.00000000000000E+00   0.00000000000000E+00
     -2.82389626748108E-19  -3.65315451321534E-34  -2.82389626748108E-19  -1.43625673912663E-17   3.57810531729219E-02
      3.57810528690636E-02   0.00000000000000E+00   0.00000000000000E+00   1.69684753677764E-09   6.89501043949327E-35
      1.69684753677764E-09   6.72528401755238E-18
      9.20402443275731E-02
      0.00000000000000E+00   3.06339223496789E-10   0.00000000000000E+00   0.00000000000000E+00  -1.72660630391357E-09
      2.96945252329490E-34  -1.72660630391357E-09   5.84972891843057E-18   0.00000000000000E+00   0.00000000000000E+00
      0.00000000000000E+00   0.00000000000000E+00   0.00000000000000E+00   0.00000000000000E+00   0.00000000000000E+00
      1.73298302385093E-18   0.00000000000000E+00   0.00000000000000E+00   0.00000000000000E+00   0.00000000000000E+00
     -6.08140383831725E-19  -3.55612346002634E-34  -6.08140383831725E-19  -1.43616039416336E-17   3.95773050608564E-02
      3.95773047517770E-02   0.00000000000000E+00   0.00000000000000E+00   1.72660630452171E-09   5.86670936731432E-35
      1.72660630452171E-09   6.77889199935211E-18
      1.01692729748058E-01
      0.00000000000000E+00   3.11359493570447E-10   0.00000000000000E+00   0.00000000000000E+00  -1.75552626971936E-09
      2.93139978638708E-34  -1.75552626971936E-09   5.84565930927421E-18   0.00000000000000E+00   0.00000000000000E+00
      0.00000000000000E+00   0.00000000000000E+00   0.00000000000000E+00   0.00000000000000E+00   0.00000000000000E+00
      1.67741099313289E-18   0.00000000000000E+00   0.00000000000000E+00   0.00000000000000E+00   0.00000000000000E+00
     -1.00229165800776E-17  -3.47636899048685E-34  -1.00229165800776E-17  -1.43606173440173E-17   4.37278737916648E-02
      4.37278734775421E-02   0.00000000000000E+00   0.00000000000000E+00   1.75552627974227E-09   5.44969204099776E-35
      1.75552627974227E-09   6.83754704161015E-18
      1.11692729748058E-01
      0.00000000000000E+00   3.16253765063696E-10   0.00000000000000E+00   0.00000000000000E+00  -1.78382529021440E-09
      3.24897230274845E-34  -1.78382529021440E-09   5.84144420830961E-18   0.00000000000000E+00   0.00000000000000E+00
      0.00000000000000E+00   0.00000000000000E+00   0.00000000000000E+00   0.00000000000000E+00   0.00000000000000E+00
      1.61986126849994E-18   0.00000000000000E+00   0.00000000000000E+00   0.00000000000000E+00   0.00000000000000E+00
     -2.03041568195510E-17  -3.67065201859636E-34  -2.03041568195510E-17  -1.43596656733542E-17   4.80278737916648E-02
      4.80278734726317E-02   0.00000000000000E+00   0.00000000000000E+00   1.78382531051855E-09   4.21679715847911E-35
      1.78382531051855E-09   6.89836019654473E-18
      1.21692729748058E-01
      0.00000000000000E+00   3.21076247495778E-10   0.00000000000000E+00   0.00000000000000E+00  -1.81177036985512E-09
      3.19357399753040E-34  -1.81177036985512E-09   5.83723009157771E-18   0.00000000000000E+00   0.00000000000000E+00
      0.00000000000000E+00   0.00000000000000E+00   0.00000000000000E+00   0.00000000000000E+00   0.00000000000000E+00
      1.56233368480818E-18   0.00000000000000E+00   0.00000000000000E+00   0.00000000000000E+00   0.00000000000000E+00
     -1.18170154405985E-16  -3.60052369213182E-34  -1.18170154405985E-16  -1.43587825938779E-17   5.23278737916648E-02
      5.23278734677978E-02   0.00000000000000E+00   0.00000000000000E+00   1.81177048802528E-09   4.06949694601423E-35
      1.81177048802528E-09   6.95921881749194E-18
      1.31692729748058E-01
      0.00000000000000E+00   3.25938844035282E-10   0.00000000000000E+00   0.00000000000000E+00  -1.83997448479786E-09
      2.96630648789460E-34  -1.83997448479786E-09   5.83301690728766E-18   0.00000000000000E+00   0.00000000000000E+00
      0.00000000000000E+00   0.00000000000000E+00   0.00000000000000E+00   0.00000000000000E+00   0.00000000000000E+00
      1.50482703365425E-18   0.00000000000000E+00   0.00000000000000E+00   0.00000000000000E+00   0.00000000000000E+00
     -1.07640885451279E-16  -3.30428636749012E-34  -1.07640885451279E-16  -1.43579651697777E-17   5.66278737916648E-02
      5.66278734629275E-02   0.00000000000000E+00   0.00000000000000E+00   1.83997459243875E-09   3.37979879595527E-35
      1.83997459243875E-09   7.02012122883581E-18
      1.41692729748058E-01
      0.00000000000000E+00   3.30884752476684E-10   0.00000000000000E+00   0.00000000000000E+00  -1.86867538876256E-09
      2.64484054413101E-34  -1.86867538876256E-09   5.82880460961609E-18   0.00000000000000E+00   0.00000000000000E+00
      0.00000000000000E+00   0.00000000000000E+00   0.00000000000000E+00   0.00000000000000E+00   0.00000000000000E+00
      1.44734021920171E-18   0.00000000000000E+00   0.00000000000000E+00   0.00000000000000E+00   0.00000000000000E+00
     -1.10140016193973E-16  -2.93617893132051E-34  -1.10140016193973E-16  -1.43572106590928E-17   6.09278737916648E-02
      6.09278734579770E-02   0.00000000000000E+00   0.00000000000000E+00   1.86867549890258E-09   2.91338387189499E-35
      1.86867549890258E-09   7.08106583027502E-18
      1.51692729748058E-01
      0.00000000000000E+00   3.35926926601719E-10   0.00000000000000E+00   0.00000000000000E+00  -1.89794634364837E-09
      2.81135738269126E-34  -1.89794634364837E-09   5.82459315820321E-18   0.00000000000000E+00   0.00000000000000E+00
      0.00000000000000E+00   0.00000000000000E+00   0.00000000000000E+00   0.00000000000000E+00   0.00000000000000E+00
      1.38987225237288E-18   0.00000000000000E+00   0.00000000000000E+00   0.00000000000000E+00   0.00000000000000E+00
     -9.79439954294074E-17  -3.05174222617058E-34  -9.79439954294074E-17  -1.43565165051105E-17   6.52278737916648E-02
      6.52278734529338E-02   0.00000000000000E+00   0.00000000000000E+00   1.89794644159236E-09   2.40384843479323E-35
      1.89794644159236E-09   7.14205109453440E-18
      1.61692729748058E-01
      0.00000000000000E+00   3.41062297877717E-10   0.00000000000000E+00   0.00000000000000E+00  -1.92777144078470E-09
      3.17658016007543E-34  -1.92777144078470E-09   5.82038251831887E-18   0.00000000000000E+00   0.00000000000000E+00
      0.00000000000000E+00   0.00000000000000E+00   0.00000000000000E+00   0.00000000000000E+00   0.00000000000000E+00
      1.33242224577507E-18   0.00000000000000E+00   0.00000000000000E+00   0.00000000000000E+00   0.00000000000000E+00
     -9.01055699047962E-17  -3.37362867457785E-34  -9.01055699047962E-17  -1.43558803288973E-17   6.95278737916648E-02
      6.95278734478009E-02   0.00000000000000E+00   0.00000000000000E+00   1.92777153089027E-09   1.97048514502423E-35
      1.92777153089027E-09   7.20307556480334E-18
      1.71692729748058E-01
      0.00000000000000E+00   3.46279174010408E-10   0.00000000000000E+00   0.00000000000000E+00  -1.95808258073154E-09
      2.46379577513858E-34  -1.95808258073154E-09   5.81617266037082E-18   0.00000000000000E+00   0.00000000000000E+00
      0.00000000000000E+00   0.00000000000000E+00   0.00000000000000E+00   0.00000000000000E+00   0.00000000000000E+00
      1.27498940478224E-18   0.00000000000000E+00   0.00000000000000E+00   0.00000000000000E+00   0.00000000000000E+00
     -8.24287307628593E-17  -2.62866732143027E-34  -8.24287307628593E-17  -1.43552999159455E-17   7.38278737916648E-02
      7.38278734425888E-02   0.00000000000000E+00   0.00000000000000E+00   1.95808266316027E-09   1.64871546291691E-35
      1.95808266316027E-09   7.26413785079245E-18
      1.81692729748058E-01
      0.00000000000000E+00   3.51563688281367E-10   0.00000000000000E+00   0.00000000000000E+00  -1.98879910161746E-09
      2.95998745403815E-34  -1.98879910161746E-09   5.81196355851611E-18   0.00000000000000E+00   0.00000000000000E+00
      0.00000000000000E+00   0.00000000000000E+00   0.00000000000000E+00   0.00000000000000E+00   0.00000000000000E+00
      1.21757301050756E-18   0.00000000000000E+00   0.00000000000000E+00   0.00000000000000E+00   0.00000000000000E+00
     -6.26604603122085E-17  -3.11812133040233E-34  -6.26604603122085E-17  -1.43547731915889E-17   7.81278737916648E-02
      7.81278734373091E-02   0.00000000000000E+00   0.00000000000000E+00   1.98879916427792E-09   1.58133876364190E-35
      1.98879916427792E-09   7.32523662256523E-18
      1.91692729748058E-01
      0.00000000000000E+00   3.56905539844094E-10   0.00000000000000E+00   0.00000000000000E+00  -2.01986231214456E-09