DF-ISE text

Info {
  version   = 1.0
  type      = xyplot
  datasets  = [
    "time"
    "source OuterVoltage" "source InnerVoltage" "source QuasiFermiPotential" "source DisplacementCurrent" "source eCurrent"
    "source hCurrent" "source TotalCurrent" "source Charge" "gate OuterVoltage" "gate InnerVoltage"
    "gate QuasiFermiPotential" "gate DisplacementCurrent" "gate eCurrent" "gate hCurrent" "gate TotalCurrent"
    "gate Charge" "substrate OuterVoltage" "substrate InnerVoltage" "substrate QuasiFermiPotential" "substrate DisplacementCurrent"
    "substrate eCurrent" "substrate hCurrent" "substrate TotalCurrent" "substrate Charge" "drain OuterVoltage"
    "drain InnerVoltage" "drain QuasiFermiPotential" "drain DisplacementCurrent" "drain eCurrent" "drain hCurrent"
    "drain TotalCurrent" "drain Charge" ]
  functions = [
    Time
    OuterVoltage InnerVoltage QuasiFermiPotential DisplacementCurrent eCurrent
    hCurrent TotalCurrent Charge OuterVoltage InnerVoltage
    QuasiFermiPotential DisplacementCurrent eCurrent hCurrent TotalCurrent
    Charge OuterVoltage InnerVoltage QuasiFermiPotential DisplacementCurrent
    eCurrent hCurrent TotalCurrent Charge OuterVoltage
    InnerVoltage QuasiFermiPotential DisplacementCurrent eCurrent hCurrent
    TotalCurrent Charge ]
}

Data {
      0.00000000000000E+00
      0.00000000000000E+00   0.00000000000000E+00   0.00000000000000E+00   0.00000000000000E+00   7.28062551698442E-20
     -9.47251773151564E-35   7.28062551698441E-20   7.06017351099996E-18   0.00000000000000E+00   0.00000000000000E+00
      0.00000000000000E+00   0.00000000000000E+00   0.00000000000000E+00   0.00000000000000E+00   0.00000000000000E+00
      4.33336377960786E-18   0.00000000000000E+00   0.00000000000000E+00   0.00000000000000E+00   0.00000000000000E+00
     -7.22755275201068E-20   3.01602244676369E-34  -7.22755275201065E-20  -1.71076907406588E-17   0.00000000000000E+00
      0.00000000000000E+00   0.00000000000000E+00   0.00000000000000E+00  -5.30727649737376E-22  -2.06877067361213E-34
     -5.30727649737583E-22   5.71415345005095E-18
      0.00000000000000E+00
      0.00000000000000E+00   4.15587046187904E-19   0.00000000000000E+00   0.00000000000000E+00  -5.24494197028561E-17
     -9.91493654301231E-35  -5.24494197028561E-17   7.05439686293409E-18   0.00000000000000E+00   0.00000000000000E+00
      0.00000000000000E+00   0.00000000000000E+00   0.00000000000000E+00   0.00000000000000E+00   0.00000000000000E+00
      4.32272918450810E-18   0.00000000000000E+00   0.00000000000000E+00   0.00000000000000E+00   0.00000000000000E+00
      5.30784449267174E-17   2.63008516799422E-34   5.30784449267174E-17  -1.70864044666633E-17   0.00000000000000E+00
      0.00000000000000E+00   0.00000000000000E+00   0.00000000000000E+00  -6.29025223861308E-19  -1.63859151369299E-34
     -6.29025223861308E-19   5.70927841922108E-18
      1.00000000000000E-03
      0.00000000000000E+00   7.86801032280233E-13   0.00000000000000E+00   0.00000000000000E+00  -4.83813548605746E-12
     -8.31160863661656E-35  -4.83813548605746E-12   7.05436470393753E-18   0.00000000000000E+00   0.00000000000000E+00
      0.00000000000000E+00   0.00000000000000E+00   0.00000000000000E+00   0.00000000000000E+00   0.00000000000000E+00
      4.32210630529865E-18   0.00000000000000E+00   0.00000000000000E+00   0.00000000000000E+00   0.00000000000000E+00
     -3.16082648136645E-19   2.98781739038047E-34  -3.16082648136645E-19  -1.70863989759789E-17   5.00000000000000E-05
      4.99999992119278E-05   0.00000000000000E+00   0.00000000000000E+00   4.83813580214011E-12  -2.15665652671881E-34
      4.83813580214011E-12   5.70992796674276E-18
      2.09333333333333E-03
      0.00000000000000E+00   1.64449331848624E-12   0.00000000000000E+00   0.00000000000000E+00  -1.01121749376396E-11
     -1.21893633130042E-34  -1.01121749376396E-11   7.05432954359835E-18   0.00000000000000E+00   0.00000000000000E+00
      0.00000000000000E+00   0.00000000000000E+00   0.00000000000000E+00   0.00000000000000E+00   0.00000000000000E+00
      4.32142529850854E-18   0.00000000000000E+00   0.00000000000000E+00   0.00000000000000E+00   0.00000000000000E+00
     -3.43395325815719E-19   3.36208332853243E-34  -3.43395325815719E-19  -1.70863929927446E-17   1.04666666666667E-04
      1.04666665019523E-04   0.00000000000000E+00   0.00000000000000E+00   1.01121752810349E-11  -2.14314699723201E-34
      1.01121752810349E-11   5.71063815063775E-18
      3.29600000000000E-03
      0.00000000000000E+00   2.58477230927185E-12   0.00000000000000E+00   0.00000000000000E+00  -1.58940690748394E-11
     -9.27126056477737E-35  -1.58940690748394E-11   7.05429086742259E-18   0.00000000000000E+00   0.00000000000000E+00
      0.00000000000000E+00   0.00000000000000E+00   0.00000000000000E+00   0.00000000000000E+00   0.00000000000000E+00
      4.32067620045462E-18   0.00000000000000E+00   0.00000000000000E+00   0.00000000000000E+00   0.00000000000000E+00
      2.95019602533674E-20   2.72958610068814E-34   2.95019602533677E-20  -1.70863864351921E-17   1.64800000000000E-04
      1.64799997411055E-04   0.00000000000000E+00   0.00000000000000E+00   1.58940690453374E-11  -1.80246004421040E-34
      1.58940690453374E-11   5.71141936731485E-18
      4.61893333333333E-03
      0.00000000000000E+00   3.61516428604353E-12   0.00000000000000E+00   0.00000000000000E+00  -2.22300448727746E-11
     -1.00626230636359E-34  -2.22300448727746E-11   7.05424832386838E-18   0.00000000000000E+00   0.00000000000000E+00
      0.00000000000000E+00   0.00000000000000E+00   0.00000000000000E+00   0.00000000000000E+00   0.00000000000000E+00
      4.31985220397600E-18   0.00000000000000E+00   0.00000000000000E+00   0.00000000000000E+00   0.00000000000000E+00
     -8.33775072147862E-20   3.26791806301800E-34  -8.33775072147859E-20  -1.70863792509068E-17   2.30946666666667E-04
      2.30946663045672E-04   0.00000000000000E+00   0.00000000000000E+00   2.22300449561521E-11  -2.26165575665441E-34
      2.22300449561521E-11   5.71227872306248E-18
      6.07416000000000E-03
      0.00000000000000E+00   4.74380311846925E-12   0.00000000000000E+00   0.00000000000000E+00  -2.91700664325391E-11
     -9.29275520487371E-35  -2.91700664325391E-11   7.05420152624819E-18   0.00000000000000E+00   0.00000000000000E+00
      0.00000000000000E+00   0.00000000000000E+00   0.00000000000000E+00   0.00000000000000E+00   0.00000000000000E+00
      4.31894582160446E-18   0.00000000000000E+00   0.00000000000000E+00   0.00000000000000E+00   0.00000000000000E+00
     -6.99330882280538E-20   3.02085475634222E-34  -6.99330882280535E-20  -1.70863713832790E-17   3.03708000000000E-04
      3.03707995248555E-04   0.00000000000000E+00   0.00000000000000E+00   2.91700665024722E-11  -2.09157923585486E-34
      2.91700665024722E-11   5.71322403542638E-18
      7.67490933333333E-03
      0.00000000000000E+00   5.97942652419513E-12   0.00000000000000E+00   0.00000000000000E+00  -3.67679874011067E-11
     -9.18786029126534E-35  -3.67679874011067E-11   7.05415004921636E-18   0.00000000000000E+00   0.00000000000000E+00
      0.00000000000000E+00   0.00000000000000E+00   0.00000000000000E+00   0.00000000000000E+00   0.00000000000000E+00
      4.31794881761849E-18   0.00000000000000E+00   0.00000000000000E+00   0.00000000000000E+00   0.00000000000000E+00
     -3.27899845684598E-20   2.74511857229217E-34  -3.27899845684595E-20  -1.70863627713008E-17   3.83745466666667E-04
      3.83745460677618E-04   0.00000000000000E+00   0.00000000000000E+00   3.67679874338967E-11  -1.82633254316564E-34
      3.67679874338967E-11   5.71426390446605E-18
      9.43573360000000E-03
      0.00000000000000E+00   7.33146583564734E-12   0.00000000000000E+00   0.00000000000000E+00  -4.50816975709946E-11
     -1.00565689145911E-34  -4.50816975709946E-11   7.05409342490522E-18   0.00000000000000E+00   0.00000000000000E+00
      0.00000000000000E+00   0.00000000000000E+00   0.00000000000000E+00   0.00000000000000E+00   0.00000000000000E+00
      4.31685213331973E-18   0.00000000000000E+00   0.00000000000000E+00   0.00000000000000E+00   0.00000000000000E+00
     -6.98426304149237E-19   3.14731409971134E-34  -6.98426304149236E-19  -1.70863533493888E-17   4.71786680000000E-04
      4.71786672656747E-04   0.00000000000000E+00   0.00000000000000E+00   4.50816982694209E-11  -2.14165720825223E-34
      4.50816982694209E-11   5.71540779116392E-18
      1.13726402933333E-02
      0.00000000000000E+00   8.81000527250165E-12   0.00000000000000E+00   0.00000000000000E+00  -5.41732472723414E-11
     -8.99001521352048E-35  -5.41732472723414E-11   7.05403113867556E-18   0.00000000000000E+00   0.00000000000000E+00
      0.00000000000000E+00   0.00000000000000E+00   0.00000000000000E+00   0.00000000000000E+00   0.00000000000000E+00
      4.31564580485813E-18   0.00000000000000E+00   0.00000000000000E+00   0.00000000000000E+00   0.00000000000000E+00
     -4.06461910946241E-19   2.73252758469365E-34  -4.06461910946241E-19  -1.70863430472416E-17   5.68632014666667E-04
      5.68632005842504E-04   0.00000000000000E+00   0.00000000000000E+00   5.41732476788033E-11  -1.83352606334161E-34
      5.41732476788033E-11   5.71666610370793E-18
      1.35032376560000E-02
      0.00000000000000E+00   1.04258293186066E-11   0.00000000000000E+00   0.00000000000000E+00  -6.41089239689770E-11
     -1.06595455664220E-34  -6.41089239689770E-11   7.05396262444276E-18   0.00000000000000E+00   0.00000000000000E+00
      0.00000000000000E+00   0.00000000000000E+00   0.00000000000000E+00   0.00000000000000E+00   0.00000000000000E+00
      4.31431887286471E-18   0.00000000000000E+00   0.00000000000000E+00   0.00000000000000E+00   0.00000000000000E+00
      1.16363613685242E-19   3.06681334962831E-34   1.16363613685242E-19  -1.70863317897492E-17   6.75161882800000E-04
      6.75161872357425E-04   0.00000000000000E+00   0.00000000000000E+00   6.41089238526134E-11  -2.00085879298612E-34
      6.41089238526134E-11   5.71805029244181E-18
      1.58468947549333E-02
      0.00000000000000E+00   1.21904169037650E-11   0.00000000000000E+00   0.00000000000000E+00  -7.49592816109727E-11
     -9.91126901966324E-35  -7.49592816109727E-11   7.05388725953593E-18   0.00000000000000E+00   0.00000000000000E+00
      0.00000000000000E+00   0.00000000000000E+00   0.00000000000000E+00   0.00000000000000E+00   0.00000000000000E+00
      4.31285928307752E-18   0.00000000000000E+00   0.00000000000000E+00   0.00000000000000E+00   0.00000000000000E+00
     -8.17492468962085E-19   2.75415075649297E-34  -8.17492468962084E-19  -1.70863194969709E-17   7.92344737746667E-04
      7.92344725536682E-04   0.00000000000000E+00   0.00000000000000E+00   7.49592824284652E-11  -1.76302385452665E-34
      7.49592824284652E-11   5.71957295435753E-18
      1.84249175637600E-02
      0.00000000000000E+00   1.41159347543410E-11   0.00000000000000E+00   0.00000000000000E+00  -8.67991026419848E-11
     -1.05270345374069E-34  -8.67991026419848E-11   7.05380435904385E-18   0.00000000000000E+00   0.00000000000000E+00
      0.00000000000000E+00   0.00000000000000E+00   0.00000000000000E+00   0.00000000000000E+00   0.00000000000000E+00
      4.31125377706627E-18   0.00000000000000E+00   0.00000000000000E+00   0.00000000000000E+00   0.00000000000000E+00
     -2.68873016260552E-20   3.18664374759816E-34  -2.68873016260549E-20  -1.70863060842041E-17   9.21245878188001E-04
      9.21245864049425E-04   0.00000000000000E+00   0.00000000000000E+00   8.67991026688722E-11  -2.13394029385747E-34
      8.67991026688722E-11   5.72124794809398E-18
      2.12607426534693E-02
      0.00000000000000E+00   1.62152049774707E-11   0.00000000000000E+00   0.00000000000000E+00  -9.97072475707398E-11
     -9.41051270785862E-35  -9.97072475707398E-11   7.05371316959641E-18   0.00000000000000E+00   0.00000000000000E+00
      0.00000000000000E+00   0.00000000000000E+00   0.00000000000000E+00   0.00000000000000E+00   0.00000000000000E+00
      4.30948777207514E-18   0.00000000000000E+00   0.00000000000000E+00   0.00000000000000E+00   0.00000000000000E+00
      2.52126284431087E-19   3.11849992113949E-34   2.52126284431087E-19  -1.70862914621760E-17   1.06303713267347E-03
      1.06303711643227E-03   0.00000000000000E+00   0.00000000000000E+00   9.97072473186135E-11  -2.17744865035363E-34
      9.97072473186135E-11   5.72309052050444E-18
      2.43801502521496E-02
      0.00000000000000E+00   1.85016942557987E-11   0.00000000000000E+00   0.00000000000000E+00  -1.13766425562005E-10
     -9.62560388347409E-35  -1.13766425562005E-10   7.05361286252542E-18   0.00000000000000E+00   0.00000000000000E+00
      0.00000000000000E+00   0.00000000000000E+00   0.00000000000000E+00   0.00000000000000E+00   0.00000000000000E+00
      4.30754522889525E-18   0.00000000000000E+00   0.00000000000000E+00   0.00000000000000E+00   0.00000000000000E+00
     -1.62394241326190E-19   2.83413715026464E-34  -1.62394241326190E-19  -1.70862755373823E-17   1.21900751260748E-03
      1.21900749407615E-03   0.00000000000000E+00   0.00000000000000E+00   1.13766425724400E-10  -1.87157676191723E-34
      1.13766425724400E-10   5.72511744596159E-18
      2.78114986106979E-02
      0.00000000000000E+00   2.09894282365468E-11   0.00000000000000E+00   0.00000000000000E+00  -1.29062805730569E-10
     -7.09386987065660E-35  -1.29062805730569E-10   7.05350252634248E-18   0.00000000000000E+00   0.00000000000000E+00
      0.00000000000000E+00   0.00000000000000E+00   0.00000000000000E+00   0.00000000000000E+00   0.00000000000000E+00
      4.30540850659038E-18   0.00000000000000E+00   0.00000000000000E+00   0.00000000000000E+00   0.00000000000000E+00
     -1.31520383252861E-18   2.73420435293099E-34  -1.31520383252861E-18  -1.70862582126259E-17   1.39057493053490E-03
      1.39057490951190E-03   0.00000000000000E+00   0.00000000000000E+00   1.29062807045773E-10  -2.02481736586533E-34
      1.29062807045773E-10   5.72734717969305E-18
      3.15859818051010E-02
      0.00000000000000E+00   2.36928722580317E-11   0.00000000000000E+00   0.00000000000000E+00  -1.45685444953528E-10
     -9.60424301795917E-35  -1.45685444953528E-10   7.05338115846652E-18   0.00000000000000E+00   0.00000000000000E+00
      0.00000000000000E+00   0.00000000000000E+00   0.00000000000000E+00   0.00000000000000E+00   0.00000000000000E+00
      4.30305820277271E-18   0.00000000000000E+00   0.00000000000000E+00   0.00000000000000E+00   0.00000000000000E+00
      4.48788684351270E-19   2.59283330430828E-34   4.48788684351271E-19  -1.70862393878089E-17   1.57929909025505E-03
      1.57929906652433E-03   0.00000000000000E+00   0.00000000000000E+00   1.45685444504739E-10  -1.63240900251237E-34
      1.45685444504739E-10   5.72980002656961E-18
      3.57379133189445E-02
      0.00000000000000E+00   2.66268877130251E-11   0.00000000000000E+00   0.00000000000000E+00  -1.63725527518759E-10
     -1.19313492933615E-34  -1.63725527518759E-10   7.05324765612588E-18   0.00000000000000E+00   0.00000000000000E+00
      0.00000000000000E+00   0.00000000000000E+00   0.00000000000000E+00   0.00000000000000E+00   0.00000000000000E+00
      4.30047297798794E-18   0.00000000000000E+00   0.00000000000000E+00   0.00000000000000E+00   0.00000000000000E+00
      8.34635914971910E-19   2.87080115932204E-34   8.34635914971910E-19  -1.70862189610269E-17   1.78689566594722E-03
      1.78689563927784E-03   0.00000000000000E+00   0.00000000000000E+00   1.63725526684123E-10  -1.67766622998590E-34
      1.63725526684123E-10   5.73249832691299E-18
      4.03050379841723E-02
      0.00000000000000E+00   2.98064760471332E-11   0.00000000000000E+00   0.00000000000000E+00  -1.83275352168567E-10
     -8.86502406907018E-35  -1.83275352168567E-10   7.05310080635273E-18   0.00000000000000E+00   0.00000000000000E+00
      0.00000000000000E+00   0.00000000000000E+00   0.00000000000000E+00   0.00000000000000E+00   0.00000000000000E+00
      4.29762936264868E-18   0.00000000000000E+00   0.00000000000000E+00   0.00000000000000E+00   0.00000000000000E+00
      1.29467745138022E-18   2.70673423273377E-34   1.29467745138022E-18  -1.70861968300580E-17   2.01525189920861E-03
      2.01525186935462E-03   0.00000000000000E+00   0.00000000000000E+00   1.83275350873889E-10  -1.82023182582675E-34
      1.83275350873889E-10   5.73546666105660E-18
      4.53288751159228E-02
      0.00000000000000E+00   3.32466540826829E-11   0.00000000000000E+00   0.00000000000000E+00  -2.04427030088096E-10
     -9.46868822004306E-35  -2.04427030088096E-10   7.05293927497965E-18   0.00000000000000E+00   0.00000000000000E+00
      0.00000000000000E+00   0.00000000000000E+00   0.00000000000000E+00   0.00000000000000E+00   0.00000000000000E+00
      4.29450154478358E-18   0.00000000000000E+00   0.00000000000000E+00   0.00000000000000E+00   0.00000000000000E+00
      1.77994150208890E-18   2.91803814826311E-34   1.77994150208890E-18  -1.70861728943285E-17   2.26644375579614E-03
      2.26644372249656E-03   0.00000000000000E+00   0.00000000000000E+00   2.04427028308155E-10  -1.97116932625881E-34
      2.04427028308155E-10   5.73873207456529E-18
      5.08550959608485E-02
      0.00000000000000E+00   3.69621132373441E-11   0.00000000000000E+00   0.00000000000000E+00  -2.27270849641493E-10
     -8.11142692145944E-35  -2.27270849641493E-10   7.05276159453875E-18   0.00000000000000E+00   0.00000000000000E+00
      0.00000000000000E+00   0.00000000000000E+00   0.00000000000000E+00   0.00000000000000E+00   0.00000000000000E+00
      4.29106113671070E-18   0.00000000000000E+00   0.00000000000000E+00   0.00000000000000E+00   0.00000000000000E+00
      2.98190493566776E-18   2.87595679471150E-34   2.98190493566776E-18  -1.70861470574714E-17   2.54275479804242E-03
      2.54275476102156E-03   0.00000000000000E+00   0.00000000000000E+00   2.27270846659588E-10  -2.06481410256556E-34
      2.27270846659588E-10   5.74232432622186E-18
      5.69339388902666E-02
      0.00000000000000E+00   4.09669223793913E-11   0.00000000000000E+00   0.00000000000000E+00  -2.51893240600197E-10
     -9.84532609227853E-35  -2.51893240600197E-10   7.05256615095491E-18   0.00000000000000E+00   0.00000000000000E+00
      0.00000000000000E+00   0.00000000000000E+00   0.00000000000000E+00   0.00000000000000E+00   0.00000000000000E+00
      4.28727691856167E-18   0.00000000000000E+00   0.00000000000000E+00   0.00000000000000E+00   0.00000000000000E+00
      5.37062621012188E-18   2.80367312910771E-34   5.37062621012188E-18  -1.70861192306232E-17   2.84669694451333E-03
      2.84669690348140E-03   0.00000000000000E+00   0.00000000000000E+00   2.51893235229571E-10  -1.81914051987985E-34
      2.51893235229571E-10   5.74627616110663E-18
      6.36206661126266E-02
      0.00000000000000E+00   4.52741396694029E-11   0.00000000000000E+00   0.00000000000000E+00  -2.78374344252777E-10
     -9.21653240264159E-35  -2.78374344252777E-10   7.05235116891182E-18   0.00000000000000E+00   0.00000000000000E+00
      0.00000000000000E+00   0.00000000000000E+00   0.00000000000000E+00   0.00000000000000E+00   0.00000000000000E+00
      4.28311455634650E-18   0.00000000000000E+00   0.00000000000000E+00   0.00000000000000E+00   0.00000000000000E+00
     -3.88777440941185E-18   2.69869731737248E-34  -3.88777440941185E-18  -1.70860893365836E-17   3.18103330563133E-03
      3.18103326028547E-03   0.00000000000000E+00   0.00000000000000E+00   2.78374348140552E-10  -1.77704407710832E-34
      2.78374348140552E-10   5.75062361132522E-18
      7.09760660572226E-02
      0.00000000000000E+00   4.98953308948742E-11   0.00000000000000E+00   0.00000000000000E+00  -3.06785109330570E-10
     -1.07485038432313E-34  -3.06785109330570E-10   7.05211469576002E-18   0.00000000000000E+00   0.00000000000000E+00
      0.00000000000000E+00   0.00000000000000E+00   0.00000000000000E+00   0.00000000000000E+00   0.00000000000000E+00
      4.27853629207488E-18   0.00000000000000E+00   0.00000000000000E+00   0.00000000000000E+00   0.00000000000000E+00
      1.18164652905479E-17   3.06551339273142E-34   1.18164652905479E-17  -1.70860573150609E-17   3.54880330286113E-03
      3.54880325288692E-03   0.00000000000000E+00   0.00000000000000E+00   3.06785097514104E-10  -1.99066300840829E-34
      3.06785097514104E-10   5.75540632722595E-18
      7.90670059962782E-02
      0.00000000000000E+00   5.48399947133329E-11   0.00000000000000E+00   0.00000000000000E+00  -3.37183768005137E-10
     -6.19629171994061E-35  -3.37183768005137E-10   7.05185458382239E-18   0.00000000000000E+00   0.00000000000000E+00
      0.00000000000000E+00   0.00000000000000E+00   0.00000000000000E+00   0.00000000000000E+00   0.00000000000000E+00
      4.27350060322084E-18   0.00000000000000E+00   0.00000000000000E+00   0.00000000000000E+00   0.00000000000000E+00
      1.73207071568027E-17   2.51849778179814E-34   1.73207071568027E-17  -1.70860231292893E-17   3.95335029981391E-03
      3.95335024488740E-03   0.00000000000000E+00   0.00000000000000E+00   3.37183750684429E-10  -1.89886860980408E-34
      3.37183750684429E-10   5.76066794224601E-18
      8.79670399292394E-02
      0.00000000000000E+00   6.01149392717696E-11   0.00000000000000E+00   0.00000000000000E+00  -3.69611990955569E-10
     -1.08773603731661E-34  -3.69611990955569E-10   7.05156847093521E-18   0.00000000000000E+00   0.00000000000000E+00
      0.00000000000000E+00   0.00000000000000E+00   0.00000000000000E+00   0.00000000000000E+00   0.00000000000000E+00
      4.26796182837513E-18   0.00000000000000E+00   0.00000000000000E+00   0.00000000000000E+00   0.00000000000000E+00
      2.54998257086112E-17   2.89553082049269E-34   2.54998257086112E-17  -1.70859867741043E-17   4.39835199646197E-03
      4.39835193625240E-03   0.00000000000000E+00   0.00000000000000E+00   3.69611965455743E-10  -1.80779478317608E-34
      3.69611965455743E-10   5.76645647479391E-18
      9.77570772554967E-02
      0.00000000000000E+00   6.57235266693881E-11   0.00000000000000E+00   0.00000000000000E+00  -4.04090269479107E-10
     -9.31973023218298E-35  -4.04090269479107E-10   7.05125375905280E-18   0.00000000000000E+00   0.00000000000000E+00
      0.00000000000000E+00   0.00000000000000E+00   0.00000000000000E+00   0.00000000000000E+00   0.00000000000000E+00
      4.26186975596452E-18   0.00000000000000E+00   0.00000000000000E+00   0.00000000000000E+00   0.00000000000000E+00
      3.76720897635665E-17   2.82732283311134E-34   3.76720897635665E-17  -1.70859482860690E-17   4.88785386277484E-03
      4.88785379694809E-03   0.00000000000000E+00   0.00000000000000E+00   4.04090231807017E-10  -1.89534980989304E-34
      4.04090231807017E-10   5.77282477105168E-18
      1.07757077255497E-01
      0.00000000000000E+00   7.12483620563494E-11   0.00000000000000E+00   0.00000000000000E+00  -4.38052571553302E-10
     -1.13866333054681E-34  -4.38052571553302E-10   7.05093231085905E-18   0.00000000000000E+00   0.00000000000000E+00
      0.00000000000000E+00   0.00000000000000E+00   0.00000000000000E+00   0.00000000000000E+00   0.00000000000000E+00
      4.25564765170567E-18   0.00000000000000E+00   0.00000000000000E+00   0.00000000000000E+00   0.00000000000000E+00
      4.46068213178624E-17   2.84701386337010E-34   4.46068213178624E-17  -1.70859105876727E-17   5.38785386277483E-03
      5.38785379141482E-03   0.00000000000000E+00   0.00000000000000E+00   4.38052526946480E-10  -1.70835053282328E-34
      4.38052526946480E-10   5.77933062510800E-18
      1.17757077255497E-01
      0.00000000000000E+00   7.65729006949430E-11   0.00000000000000E+00   0.00000000000000E+00  -4.70782525614646E-10
     -1.09259130291789E-34  -4.70782525614646E-10   7.05061087585733E-18   0.00000000000000E+00   0.00000000000000E+00
      0.00000000000000E+00   0.00000000000000E+00   0.00000000000000E+00   0.00000000000000E+00   0.00000000000000E+00
      4.24942617096285E-18   0.00000000000000E+00   0.00000000000000E+00   0.00000000000000E+00   0.00000000000000E+00
      4.47684388556776E-17   2.84436328266784E-34   4.47684388556776E-17  -1.70858745108758E-17   5.88785386277483E-03
      5.88785378608222E-03   0.00000000000000E+00   0.00000000000000E+00   4.70782480846207E-10  -1.75177197974996E-34
      4.70782480846207E-10   5.78583746405576E-18
      1.27757077255497E-01
      0.00000000000000E+00   8.17029811675807E-11   0.00000000000000E+00   0.00000000000000E+00  -5.02316545528635E-10
     -1.04899264314365E-34  -5.02316545528635E-10   7.05028945392134E-18   0.00000000000000E+00   0.00000000000000E+00
      0.00000000000000E+00   0.00000000000000E+00   0.00000000000000E+00   0.00000000000000E+00   0.00000000000000E+00
      4.24320530849624E-18   0.00000000000000E+00   0.00000000000000E+00   0.00000000000000E+00   0.00000000000000E+00
      2.95249800893023E-17   2.93473064277867E-34   2.95249800893023E-17  -1.70858400450954E-17   6.38785386277483E-03
      6.38785378094434E-03   0.00000000000000E+00   0.00000000000000E+00   5.02316516003655E-10  -1.88573799963503E-34
      5.02316516003655E-10   5.79234528267781E-18
      1.37757077255497E-01
      0.00000000000000E+00   8.66445717198329E-11   0.00000000000000E+00   0.00000000000000E+00  -5.32690651678783E-10
     -8.32969650013613E-35  -5.32690651678783E-10   7.04996804492597E-18   0.00000000000000E+00   0.00000000000000E+00
      0.00000000000000E+00   0.00000000000000E+00   0.00000000000000E+00   0.00000000000000E+00   0.00000000000000E+00
      4.23698505914304E-18   0.00000000000000E+00   0.00000000000000E+00   0.00000000000000E+00   0.00000000000000E+00
      2.84174146164410E-17   2.45663297037573E-34   2.84174146164410E-17  -1.70858071798664E-17   6.88785386277483E-03
      6.88785377599533E-03   0.00000000000000E+00   0.00000000000000E+00   5.32690623261368E-10  -1.62366332036212E-34
      5.32690623261368E-10   5.79885407579741E-18
      1.47757077255497E-01
      0.00000000000000E+00   9.14033895826938E-11   0.00000000000000E+00   0.00000000000000E+00  -5.61940438260219E-10
     -9.86253187137796E-35  -5.61940438260219E-10   7.04964664874515E-18   0.00000000000000E+00   0.00000000000000E+00
      0.00000000000000E+00   0.00000000000000E+00   0.00000000000000E+00   0.00000000000000E+00   0.00000000000000E+00
      4.23076541775645E-18   0.00000000000000E+00   0.00000000000000E+00   0.00000000000000E+00   0.00000000000000E+00
      2.86763721482095E-17   2.47954764411213E-34   2.86763721482095E-17  -1.70857759047646E-17   7.38785386277483E-03
      7.38785377122939E-03   0.00000000000000E+00   0.00000000000000E+00   5.61940409583847E-10  -1.49329445697434E-34
      5.61940409583847E-10   5.80536383826296E-18
      1.57757077255497E-01
      0.00000000000000E+00   9.59851233116519E-11   0.00000000000000E+00   0.00000000000000E+00  -5.90101014784391E-10
     -9.47769652050894E-35  -5.90101014784391E-10   7.04932526525282E-18   0.00000000000000E+00   0.00000000000000E+00
      0.00000000000000E+00   0.00000000000000E+00   0.00000000000000E+00   0.00000000000000E+00   0.00000000000000E+00
      4.22454637920835E-18   0.00000000000000E+00   0.00000000000000E+00   0.00000000000000E+00   0.00000000000000E+00
      2.74512419920064E-17   2.39679369512537E-34   2.74512419920064E-17  -1.70857462094092E-17   7.88785386277484E-03
      7.88785376664084E-03   0.00000000000000E+00   0.00000000000000E+00   5.90100987333149E-10  -1.44902404307448E-34
      5.90100987333149E-10   5.81187456494807E-18
      1.67757077255497E-01
      0.00000000000000E+00   1.00395356734260E-10   0.00000000000000E+00   0.00000000000000E+00  -6.17206827412420E-10
     -8.40318599480621E-35  -6.17206827412420E-10   7.04900389432349E-18   0.00000000000000E+00   0.00000000000000E+00
      0.00000000000000E+00   0.00000000000000E+00   0.00000000000000E+00   0.00000000000000E+00   0.00000000000000E+00
      4.21832793843248E-18   0.00000000000000E+00   0.00000000000000E+00   0.00000000000000E+00   0.00000000000000E+00
      2.72764222616354E-17   2.28409704736720E-34   2.72764222616354E-17  -1.70857180835173E-17   8.38785386277484E-03
      8.38785376222407E-03   0.00000000000000E+00   0.00000000000000E+00   6.17206800135998E-10  -1.44377844788658E-34
      6.17206800135998E-10   5.81838625076131E-18
      1.77757077255497E-01
      0.00000000000000E+00   1.04639578093049E-10   0.00000000000000E+00   0.00000000000000E+00  -6.43291646760492E-10
     -1.19138240359847E-34  -6.43291646760492E-10   7.04868253583209E-18   0.00000000000000E+00   0.00000000000000E+00
      0.00000000000000E+00   0.00000000000000E+00   0.00000000000000E+00   0.00000000000000E+00   0.00000000000000E+00
      4.21211009040970E-18   0.00000000000000E+00   0.00000000000000E+00   0.00000000000000E+00   0.00000000000000E+00
      2.31563923288833E-17   2.66914870228100E-34   2.31563923288833E-17  -1.70856915168863E-17   8.88785386277484E-03
      8.88785375797358E-03   0.00000000000000E+00   0.00000000000000E+00   6.43291623604100E-10  -1.47776629868254E-34
      6.43291623604100E-10   5.82489889064445E-18
      1.87757077255497E-01
      0.00000000000000E+00   1.08723163006462E-10   0.00000000000000E+00   0.00000000000000E+00  -6.68388543883276E-10
     -1.01798116385287E-34  -6.68388543883276E-10   7.04836118965415E-18   0.00000000000000E+00   0.00000000000000E+00
      0.00000000000000E+00   0.00000000000000E+00   0.00000000000000E+00   0.00000000000000E+00   0.00000000000000E+00
      4.20589283016146E-18   0.00000000000000E+00   0.00000000000000E+00   0.00000000000000E+00   0.00000000000000E+00
      2.69760638613969E-17   2.62380958713086E-34   2.69760638613969E-17  -1.70856664993841E-17   9.38785386277484E-03
      9.38785375388400E-03   0.00000000000000E+00   0.00000000000000E+00   6.68388516907213E-10  -1.60582842327799E-34
      6.68388516907213E-10   5.83141247956848E-18
      1.97757077255497E-01
      0.00000000000000E+00   1.12651341637476E-10   0.00000000000000E+00   0.00000000000000E+00  -6.92529827186891E-10