DF-ISE text

Info {
  version   = 1.0
  type      = xyplot
  datasets  = [
    "time"
    "source OuterVoltage" "source InnerVoltage" "source QuasiFermiPotential" "source DisplacementCurrent" "source eCurrent"
    "source hCurrent" "source TotalCurrent" "source Charge" "gate OuterVoltage" "gate InnerVoltage"
    "gate QuasiFermiPotential" "gate DisplacementCurrent" "gate eCurrent" "gate hCurrent" "gate TotalCurrent"
    "gate Charge" "substrate OuterVoltage" "substrate InnerVoltage" "substrate QuasiFermiPotential" "substrate DisplacementCurrent"
    "substrate eCurrent" "substrate hCurrent" "substrate TotalCurrent" "substrate Charge" "drain OuterVoltage"
    "drain InnerVoltage" "drain QuasiFermiPotential" "drain DisplacementCurrent" "drain eCurrent" "drain hCurrent"
    "drain TotalCurrent" "drain Charge" ]
  functions = [
    Time
    OuterVoltage InnerVoltage QuasiFermiPotential DisplacementCurrent eCurrent
    hCurrent TotalCurrent Charge OuterVoltage InnerVoltage
    QuasiFermiPotential DisplacementCurrent eCurrent hCurrent TotalCurrent
    Charge OuterVoltage InnerVoltage QuasiFermiPotential DisplacementCurrent
    eCurrent hCurrent TotalCurrent Charge OuterVoltage
    InnerVoltage QuasiFermiPotential DisplacementCurrent eCurrent hCurrent
    TotalCurrent Charge ]
}

Data {
      0.00000000000000E+00
      0.00000000000000E+00   0.00000000000000E+00   0.00000000000000E+00   0.00000000000000E+00  -4.32325326769719E-21
      7.72422101221390E-34  -4.32325326769641E-21   6.38937063398275E-18   0.00000000000000E+00   0.00000000000000E+00
      0.00000000000000E+00   0.00000000000000E+00   0.00000000000000E+00   0.00000000000000E+00   0.00000000000000E+00
      4.38097013678266E-18   0.00000000000000E+00   0.00000000000000E+00   0.00000000000000E+00   0.00000000000000E+00
      6.48895064109790E-21  -1.60036937530507E-33   6.48895064109631E-21  -1.63267490640071E-17   0.00000000000000E+00
      0.00000000000000E+00   0.00000000000000E+00   0.00000000000000E+00  -2.16569737340072E-21   8.27947274083683E-34
     -2.16569737339989E-21   5.55640829324167E-18
      0.00000000000000E+00
      0.00000000000000E+00   0.00000000000000E+00   0.00000000000000E+00   0.00000000000000E+00  -1.24222476007276E-18
      7.67602057988264E-34  -1.24222476007276E-18   6.38434635516417E-18   0.00000000000000E+00   0.00000000000000E+00
      0.00000000000000E+00   0.00000000000000E+00   0.00000000000000E+00   0.00000000000000E+00   0.00000000000000E+00
      4.37044244535686E-18   0.00000000000000E+00   0.00000000000000E+00   0.00000000000000E+00   0.00000000000000E+00
      1.87892414902752E-18  -1.60532625174415E-33   1.87892414902751E-18  -1.63068943325966E-17   0.00000000000000E+00
     -8.58362029976885E-19   0.00000000000000E+00   0.00000000000000E+00  -6.36699388954752E-19   8.37724193755884E-34
     -6.36699388954751E-19   5.55210553207552E-18
      1.00000000000000E-03
      0.00000000000000E+00   9.51355255580521E-13   0.00000000000000E+00   0.00000000000000E+00  -5.63057869228173E-12
      7.65589479748542E-34  -5.63057869228173E-12   6.38432051967024E-18   0.00000000000000E+00   0.00000000000000E+00
      0.00000000000000E+00   0.00000000000000E+00   0.00000000000000E+00   0.00000000000000E+00   0.00000000000000E+00
      4.36978388941738E-18   0.00000000000000E+00   0.00000000000000E+00   0.00000000000000E+00   0.00000000000000E+00
     -2.09964201135779E-19  -1.57786734991756E-33  -2.09964201135781E-19  -1.63068769391007E-17   5.00000000000000E-05
      4.99999990447757E-05   0.00000000000000E+00   0.00000000000000E+00   5.63057890224593E-12   8.12277870169023E-34
      5.63057890224593E-12   5.55277253001309E-18
      2.09333333333333E-03
      0.00000000000000E+00   1.98844542743919E-12   0.00000000000000E+00   0.00000000000000E+00  -1.17685974722989E-11
      7.54720494287830E-34  -1.17685974722989E-11   6.38429227303044E-18   0.00000000000000E+00   0.00000000000000E+00
      0.00000000000000E+00   0.00000000000000E+00   0.00000000000000E+00   0.00000000000000E+00   0.00000000000000E+00
      4.36906387753611E-18   0.00000000000000E+00   0.00000000000000E+00   0.00000000000000E+00   0.00000000000000E+00
      2.14517901763643E-20  -1.56527745117585E-33   2.14517901763627E-20  -1.63068579457317E-17   1.04666666666667E-04
      1.04666664670133E-04   0.00000000000000E+00   0.00000000000000E+00   1.17685974508471E-11   8.10556956888021E-34
      1.17685974508471E-11   5.55350179516518E-18
      3.29600000000000E-03
      0.00000000000000E+00   3.12544507695804E-12   0.00000000000000E+00   0.00000000000000E+00  -1.84978632427351E-11
      7.67968193832868E-34  -1.84978632427351E-11   6.38426120192829E-18   0.00000000000000E+00   0.00000000000000E+00
      0.00000000000000E+00   0.00000000000000E+00   0.00000000000000E+00   0.00000000000000E+00   0.00000000000000E+00
      4.36827187565066E-18   0.00000000000000E+00   0.00000000000000E+00   0.00000000000000E+00   0.00000000000000E+00
     -4.53922607040380E-20  -1.60210773828019E-33  -4.53922607040396E-20  -1.63068370813801E-17   1.64800000000000E-04
      1.64799996861852E-04   0.00000000000000E+00   0.00000000000000E+00   1.84978632881274E-11   8.34139544447322E-34
      1.84978632881274E-11   5.55430400380117E-18
      4.61893333333333E-03
      0.00000000000000E+00   4.37144339967249E-12   0.00000000000000E+00   0.00000000000000E+00  -2.58722585160228E-11
      7.52755691967371E-34  -2.58722585160228E-11   6.38422702396039E-18   0.00000000000000E+00   0.00000000000000E+00
      0.00000000000000E+00   0.00000000000000E+00   0.00000000000000E+00   0.00000000000000E+00   0.00000000000000E+00
      4.36740068709540E-18   0.00000000000000E+00   0.00000000000000E+00   0.00000000000000E+00   0.00000000000000E+00
     -1.16024756341092E-19  -1.57237524095750E-33  -1.16024756341094E-19  -1.63068141648751E-17   2.30946666666667E-04
      2.30946662277454E-04   0.00000000000000E+00   0.00000000000000E+00   2.58722586320476E-11   8.19619548990131E-34
      2.58722586320476E-11   5.55518645381935E-18
      6.07416000000000E-03
      0.00000000000000E+00   5.73629138741957E-12   0.00000000000000E+00   0.00000000000000E+00  -3.39500324385445E-11
      7.33266168462778E-34  -3.39500324385445E-11   6.38418942849180E-18   0.00000000000000E+00   0.00000000000000E+00
      0.00000000000000E+00   0.00000000000000E+00   0.00000000000000E+00   0.00000000000000E+00   0.00000000000000E+00
      4.36644239602362E-18   0.00000000000000E+00   0.00000000000000E+00   0.00000000000000E+00   0.00000000000000E+00
     -3.66951069251108E-20  -1.54688297578717E-33  -3.66951069251123E-20  -1.63067889981647E-17   3.03708000000000E-04
      3.03707994240400E-04   0.00000000000000E+00   0.00000000000000E+00   3.39500324752396E-11   8.13616807324394E-34
      3.39500324752396E-11   5.55615717364928E-18
      7.67490933333333E-03
      0.00000000000000E+00   7.23060268669993E-12   0.00000000000000E+00   0.00000000000000E+00  -4.27939849643310E-11
      7.43805589606777E-34  -4.27939849643310E-11   6.38414807383474E-18   0.00000000000000E+00   0.00000000000000E+00
      0.00000000000000E+00   0.00000000000000E+00   0.00000000000000E+00   0.00000000000000E+00   0.00000000000000E+00
      4.36538829559024E-18   0.00000000000000E+00   0.00000000000000E+00   0.00000000000000E+00   0.00000000000000E+00
     -1.20677221111764E-19  -1.55771424542803E-33  -1.20677221111765E-19  -1.63067613648842E-17   3.83745466666667E-04
      3.83745459406679E-04   0.00000000000000E+00   0.00000000000000E+00   4.27939850850082E-11   8.13908655821254E-34
      4.27939850850082E-11   5.55722499545920E-18
      9.43573360000000E-03
      0.00000000000000E+00   8.86578278298692E-12   0.00000000000000E+00   0.00000000000000E+00  -5.24716451785028E-11
      7.72047082368966E-34  -5.24716451785028E-11   6.38410258414565E-18   0.00000000000000E+00   0.00000000000000E+00
      0.00000000000000E+00   0.00000000000000E+00   0.00000000000000E+00   0.00000000000000E+00   0.00000000000000E+00
      4.36422880897290E-18   0.00000000000000E+00   0.00000000000000E+00   0.00000000000000E+00   0.00000000000000E+00
      9.50937818374383E-21  -1.59872939685731E-33   9.50937818374223E-21  -1.63067310288347E-17   4.71786680000000E-04
      4.71786671098200E-04   0.00000000000000E+00   0.00000000000000E+00   5.24716451689934E-11   8.26682314488340E-34
      5.24716451689934E-11   5.55839963571621E-18
      1.13726402933333E-02
      0.00000000000000E+00   1.06540723480090E-11   0.00000000000000E+00   0.00000000000000E+00  -6.30554176141994E-11
      7.31351437197109E-34  -6.30554176141994E-11   6.38405254601226E-18   0.00000000000000E+00   0.00000000000000E+00
      0.00000000000000E+00   0.00000000000000E+00   0.00000000000000E+00   0.00000000000000E+00   0.00000000000000E+00
      4.36295340252019E-18   0.00000000000000E+00   0.00000000000000E+00   0.00000000000000E+00   0.00000000000000E+00
     -1.67314657770129E-19  -1.54320540493969E-33  -1.67314657770130E-19  -1.63066977323732E-17   5.68632014666667E-04
      5.68632003969319E-04   0.00000000000000E+00   0.00000000000000E+00   6.30554177815141E-11   8.11853967742584E-34
      6.30554177815141E-11   5.55969178384080E-18
      1.35032376560000E-02
      0.00000000000000E+00   1.26085532482840E-11   0.00000000000000E+00   0.00000000000000E+00  -7.46226868358955E-11
      7.34288718500903E-34  -7.46226868358955E-11   6.38399750469989E-18   0.00000000000000E+00   0.00000000000000E+00
      0.00000000000000E+00   0.00000000000000E+00   0.00000000000000E+00   0.00000000000000E+00   0.00000000000000E+00
      4.36155049024435E-18   0.00000000000000E+00   0.00000000000000E+00   0.00000000000000E+00   0.00000000000000E+00
      2.15663654337999E-20  -1.54697681180922E-33   2.15663654337984E-20  -1.63066611947178E-17   6.75161882800000E-04
      6.75161870140242E-04   0.00000000000000E+00   0.00000000000000E+00   7.46226868143292E-11   8.12688093308322E-34
      7.46226868143292E-11   5.56111319977353E-18
      1.58468947549333E-02
      0.00000000000000E+00   1.47431494034813E-11   0.00000000000000E+00   0.00000000000000E+00  -8.72558574993445E-11
      7.50945998282673E-34  -8.72558574993445E-11   6.38393696002323E-18   0.00000000000000E+00   0.00000000000000E+00
      0.00000000000000E+00   0.00000000000000E+00   0.00000000000000E+00   0.00000000000000E+00   0.00000000000000E+00
      4.36000732879910E-18   0.00000000000000E+00   0.00000000000000E+00   0.00000000000000E+00   0.00000000000000E+00
     -7.51865101444959E-20  -1.56193877723397E-33  -7.51865101444975E-20  -1.63066211101764E-17   7.92344737746667E-04
      7.92344722943669E-04   0.00000000000000E+00   0.00000000000000E+00   8.72558575745310E-11   8.10992778951298E-34
      8.72558575745310E-11   5.56267682135415E-18
      1.84249175637600E-02
      0.00000000000000E+00   1.70726272156025E-11   0.00000000000000E+00   0.00000000000000E+00  -1.01042315101963E-10
      7.60798901083819E-34  -1.01042315101963E-10   6.38387036180577E-18   0.00000000000000E+00   0.00000000000000E+00
      0.00000000000000E+00   0.00000000000000E+00   0.00000000000000E+00   0.00000000000000E+00   0.00000000000000E+00
      4.35830990199876E-18   0.00000000000000E+00   0.00000000000000E+00   0.00000000000000E+00   0.00000000000000E+00
     -6.58015764094322E-20  -1.53913175577597E-33  -6.58015764094337E-20  -1.63065771463107E-17   9.21245878188001E-04
      9.21245861046080E-04   0.00000000000000E+00   0.00000000000000E+00   1.01042315167765E-10   7.78332854692148E-34
      1.01042315167765E-10   5.56439688250622E-18
      2.12607426534693E-02
      0.00000000000000E+00   1.96125788309221E-11   0.00000000000000E+00   0.00000000000000E+00  -1.16074285824346E-10
      7.65280622941069E-34  -1.16074285824346E-10   6.38379710488642E-18   0.00000000000000E+00   0.00000000000000E+00
      0.00000000000000E+00   0.00000000000000E+00   0.00000000000000E+00   0.00000000000000E+00   0.00000000000000E+00
      4.35644279383862E-18   0.00000000000000E+00   0.00000000000000E+00   0.00000000000000E+00   0.00000000000000E+00
      4.03611961329751E-19  -1.56478327842007E-33   4.03611961329749E-19  -1.63065289420454E-17   1.06303713267347E-03
      1.06303711298130E-03   0.00000000000000E+00   0.00000000000000E+00   1.16074285420734E-10   7.99502655478999E-34
      1.16074285420734E-10   5.56628904332041E-18
      2.43801502521496E-02
      0.00000000000000E+00   2.23793633421885E-11   0.00000000000000E+00   0.00000000000000E+00  -1.32448561762347E-10
      7.56880740519123E-34  -1.32448561762347E-10   6.38371652362766E-18   0.00000000000000E+00   0.00000000000000E+00
      0.00000000000000E+00   0.00000000000000E+00   0.00000000000000E+00   0.00000000000000E+00   0.00000000000000E+00
      4.35438904888070E-18   0.00000000000000E+00   0.00000000000000E+00   0.00000000000000E+00   0.00000000000000E+00
      5.42636719972306E-19  -1.55987532147797E-33   5.42636719972305E-19  -1.63064761057526E-17   1.21900751260748E-03
      1.21900749013733E-03   0.00000000000000E+00   0.00000000000000E+00   1.32448561219711E-10   8.02994580958851E-34
      1.32448561219711E-10   5.56837053324427E-18
      2.78114986106979E-02
      0.00000000000000E+00   2.53900419822906E-11   0.00000000000000E+00   0.00000000000000E+00  -1.50266067098405E-10
      7.69118076960462E-34  -1.50266067098405E-10   6.38362788587609E-18   0.00000000000000E+00   0.00000000000000E+00
      0.00000000000000E+00   0.00000000000000E+00   0.00000000000000E+00   0.00000000000000E+00   0.00000000000000E+00
      4.35213001875178E-18   0.00000000000000E+00   0.00000000000000E+00   0.00000000000000E+00   0.00000000000000E+00
      7.30442073104157E-19  -1.55610325009428E-33   7.30442073104156E-19  -1.63064182133358E-17   1.39057493053490E-03
      1.39057490504189E-03   0.00000000000000E+00   0.00000000000000E+00   1.50266066367963E-10   7.86985173133817E-34
      1.50266066367963E-10   5.57066030870794E-18
      3.15859818051010E-02
      0.00000000000000E+00   2.86622776959000E-11   0.00000000000000E+00   0.00000000000000E+00  -1.69631226819683E-10
      7.42296198344901E-34  -1.69631226819683E-10   6.38353038632044E-18   0.00000000000000E+00   0.00000000000000E+00
      0.00000000000000E+00   0.00000000000000E+00   0.00000000000000E+00   0.00000000000000E+00   0.00000000000000E+00
      4.34964519337867E-18   0.00000000000000E+00   0.00000000000000E+00   0.00000000000000E+00   0.00000000000000E+00
      1.66021568582679E-18  -1.51725409478738E-33   1.66021568582679E-18  -1.63063548063522E-17   1.57929909025505E-03
      1.57929906147659E-03   0.00000000000000E+00   0.00000000000000E+00   1.69631225159467E-10   7.74957896442480E-34
      1.69631225159467E-10   5.57317922665305E-18
      3.57379133189445E-02
      0.00000000000000E+00   3.22141600336177E-11   0.00000000000000E+00   0.00000000000000E+00  -1.90651094296560E-10
      7.40147720163014E-34  -1.90651094296560E-10   6.38342313918730E-18   0.00000000000000E+00   0.00000000000000E+00
      0.00000000000000E+00   0.00000000000000E+00   0.00000000000000E+00   0.00000000000000E+00   0.00000000000000E+00
      4.34691201545219E-18   0.00000000000000E+00   0.00000000000000E+00   0.00000000000000E+00   0.00000000000000E+00
      2.39569903577004E-18  -1.51745247808618E-33   2.39569903577004E-18  -1.63062853902224E-17   1.78689566594722E-03
      1.78689563360253E-03   0.00000000000000E+00   0.00000000000000E+00   1.90651091900861E-10   7.77304757923167E-34
      1.90651091900861E-10   5.57595023558291E-18
      4.03050379841723E-02
      0.00000000000000E+00   3.60640476425407E-11   0.00000000000000E+00   0.00000000000000E+00  -2.13434207443581E-10
      7.91954670835646E-34  -2.13434207443581E-10   6.38330517020870E-18   0.00000000000000E+00   0.00000000000000E+00
      0.00000000000000E+00   0.00000000000000E+00   0.00000000000000E+00   0.00000000000000E+00   0.00000000000000E+00
      4.34390567646075E-18   0.00000000000000E+00   0.00000000000000E+00   0.00000000000000E+00   0.00000000000000E+00
      3.61428271623537E-18  -1.57491035144151E-33   3.61428271623537E-18  -1.63062094325897E-17   2.01525189920861E-03
      2.01525186299848E-03   0.00000000000000E+00   0.00000000000000E+00   2.13434203829299E-10   7.82955680605868E-34
      2.13434203829299E-10   5.57899858592023E-18
      4.53288751159228E-02
      0.00000000000000E+00   4.02303000281282E-11   0.00000000000000E+00   0.00000000000000E+00  -2.38089095230334E-10
      7.86078393240590E-34  -2.38089095230334E-10   6.38317540778925E-18   0.00000000000000E+00   0.00000000000000E+00
      0.00000000000000E+00   0.00000000000000E+00   0.00000000000000E+00   0.00000000000000E+00   0.00000000000000E+00
      4.34059889247917E-18   0.00000000000000E+00   0.00000000000000E+00   0.00000000000000E+00   0.00000000000000E+00
      5.09111826295616E-18  -1.54129476325785E-33   5.09111826295616E-18  -1.63061263619116E-17   2.26644375579614E-03
      2.26644371540296E-03   0.00000000000000E+00   0.00000000000000E+00   2.38089090139216E-10   7.55216370017260E-34
      2.38089090139216E-10   5.58235206164325E-18
      5.08550959608485E-02
      0.00000000000000E+00   4.47309565268023E-11   0.00000000000000E+00   0.00000000000000E+00  -2.64722389394380E-10
      7.53598552355016E-34  -2.64722389394380E-10   6.38303267329300E-18   0.00000000000000E+00   0.00000000000000E+00
      0.00000000000000E+00   0.00000000000000E+00   0.00000000000000E+00   0.00000000000000E+00   0.00000000000000E+00
      4.33696165771837E-18   0.00000000000000E+00   0.00000000000000E+00   0.00000000000000E+00   0.00000000000000E+00
      7.76647415599974E-18  -1.50418512780275E-33   7.76647415599973E-18  -1.63060355663893E-17   2.54275479804242E-03
      2.54275475313045E-03   0.00000000000000E+00   0.00000000000000E+00   2.64722381627906E-10   7.50586575447734E-34
      2.64722381627906E-10   5.58604123537787E-18
      5.69339388902666E-02
      0.00000000000000E+00   4.95833418885949E-11   0.00000000000000E+00   0.00000000000000E+00  -2.93436551004778E-10
      7.71575144510805E-34  -2.93436551004778E-10   6.38287567036237E-18   0.00000000000000E+00   0.00000000000000E+00
      0.00000000000000E+00   0.00000000000000E+00   0.00000000000000E+00   0.00000000000000E+00   0.00000000000000E+00
      4.33296097361185E-18   0.00000000000000E+00   0.00000000000000E+00   0.00000000000000E+00   0.00000000000000E+00
      1.15149098742887E-17  -1.51746840617007E-33   1.15149098742887E-17  -1.63059363933111E-17   2.84669694451333E-03
      2.84669689472943E-03   0.00000000000000E+00   0.00000000000000E+00   2.93436539489868E-10   7.45893261659269E-34
      2.93436539489868E-10   5.59009974933685E-18
      6.36206661126266E-02
      0.00000000000000E+00   5.48036362377711E-11   0.00000000000000E+00   0.00000000000000E+00  -3.24327014005865E-10
      7.62283565238990E-34  -3.24327014005865E-10   6.38270297317401E-18   0.00000000000000E+00   0.00000000000000E+00
      0.00000000000000E+00   0.00000000000000E+00   0.00000000000000E+00   0.00000000000000E+00   0.00000000000000E+00
      4.32856055109596E-18   0.00000000000000E+00   0.00000000000000E+00   0.00000000000000E+00   0.00000000000000E+00
      1.70231659007916E-17  -1.49595875009408E-33   1.70231659007916E-17  -1.63058281490490E-17   3.18103330563133E-03
      3.18103325060615E-03   0.00000000000000E+00   0.00000000000000E+00   3.24326996982699E-10   7.33675184855092E-34
      3.24326996982699E-10   5.59456462477906E-18
      7.09760660572226E-02
      0.00000000000000E+00   6.04062102714368E-11   0.00000000000000E+00   0.00000000000000E+00  -3.57478821172527E-10
      7.59353829803091E-34  -3.57478821172527E-10   6.38251301352472E-18   0.00000000000000E+00   0.00000000000000E+00
      0.00000000000000E+00   0.00000000000000E+00   0.00000000000000E+00   0.00000000000000E+00   0.00000000000000E+00
      4.32372048338786E-18   0.00000000000000E+00   0.00000000000000E+00   0.00000000000000E+00   0.00000000000000E+00
      2.49753893135911E-17  -1.49434640826499E-33   2.49753893135911E-17  -1.63057100998141E-17   3.54880330286113E-03
      3.54880324221087E-03   0.00000000000000E+00   0.00000000000000E+00   3.57478796197138E-10   7.34992578461897E-34
      3.57478796197138E-10   5.59947660290153E-18
      7.90670059962782E-02
      0.00000000000000E+00   6.64030780537446E-11   0.00000000000000E+00   0.00000000000000E+00  -3.92962657070625E-10
      7.72317707913523E-34  -3.92962657070625E-10   6.38230406663218E-18   0.00000000000000E+00   0.00000000000000E+00
      0.00000000000000E+00   0.00000000000000E+00   0.00000000000000E+00   0.00000000000000E+00   0.00000000000000E+00
      4.31839688638454E-18   0.00000000000000E+00   0.00000000000000E+00   0.00000000000000E+00   0.00000000000000E+00
      3.67324371545629E-17  -1.49903429814149E-33   3.67324371545629E-17  -1.63055814734251E-17   3.95335029981391E-03
      3.95335023314273E-03   0.00000000000000E+00   0.00000000000000E+00   3.92962620338188E-10   7.26716590227967E-34
      3.92962620338188E-10   5.60488052040829E-18
      8.79670399292394E-02
      0.00000000000000E+00   7.28029940190381E-11   0.00000000000000E+00   0.00000000000000E+00  -4.30830275358613E-10
      7.62408719287699E-34  -4.30830275358613E-10   6.38207423552243E-18   0.00000000000000E+00   0.00000000000000E+00
      0.00000000000000E+00   0.00000000000000E+00   0.00000000000000E+00   0.00000000000000E+00   0.00000000000000E+00
      4.31254150351337E-18   0.00000000000000E+00   0.00000000000000E+00   0.00000000000000E+00   0.00000000000000E+00
      8.66284617453672E-17  -1.45871514466699E-33   8.66284617453672E-17  -1.63054414623754E-17   4.39835199646197E-03
      4.39835192336522E-03   0.00000000000000E+00   0.00000000000000E+00   4.30830188730151E-10   6.96306425379290E-34
      4.30830188730151E-10   5.61082572333960E-18
      9.77570772554967E-02
      0.00000000000000E+00   7.96106675705950E-11   0.00000000000000E+00   0.00000000000000E+00  -4.71109065290643E-10
      7.58501085234348E-34  -4.71109065290643E-10   6.38182143386388E-18   0.00000000000000E+00   0.00000000000000E+00
      0.00000000000000E+00   0.00000000000000E+00   0.00000000000000E+00   0.00000000000000E+00   0.00000000000000E+00
      4.30610127151572E-18   0.00000000000000E+00   0.00000000000000E+00   0.00000000000000E+00   0.00000000000000E+00
      7.15905890583544E-17  -1.45599241243069E-33   7.15905890583544E-17  -1.63052892284791E-17   4.88785386277484E-03
      4.88785378284318E-03   0.00000000000000E+00   0.00000000000000E+00   4.71108993700054E-10   6.97491327196340E-34
      4.71108993700054E-10   5.61736652309946E-18
      1.07757077255497E-01
      0.00000000000000E+00   8.63197754102495E-11   0.00000000000000E+00   0.00000000000000E+00  -5.10803281862769E-10
      7.62126697001487E-34  -5.10803281862769E-10   6.38156322393842E-18   0.00000000000000E+00   0.00000000000000E+00
      0.00000000000000E+00   0.00000000000000E+00   0.00000000000000E+00   0.00000000000000E+00   0.00000000000000E+00
      4.29952365811978E-18   0.00000000000000E+00   0.00000000000000E+00   0.00000000000000E+00   0.00000000000000E+00
      9.05706578653864E-17  -1.42811733155052E-33   9.05706578653864E-17  -1.63051356414177E-17   5.38785386277483E-03
      5.38785377610726E-03   0.00000000000000E+00   0.00000000000000E+00   5.10803191292111E-10   6.65990634549036E-34
      5.10803191292111E-10   5.62404875935953E-18
      1.17757077255497E-01
      0.00000000000000E+00   9.27886684899100E-11   0.00000000000000E+00   0.00000000000000E+00  -5.49074865897985E-10
      7.43231737109119E-34  -5.49074865897985E-10   6.38130502748306E-18   0.00000000000000E+00   0.00000000000000E+00
      0.00000000000000E+00   0.00000000000000E+00   0.00000000000000E+00   0.00000000000000E+00   0.00000000000000E+00
      4.29294678588959E-18   0.00000000000000E+00   0.00000000000000E+00   0.00000000000000E+00   0.00000000000000E+00
      8.64034557595621E-17  -1.42493574099244E-33   8.64034557595621E-17  -1.63049839743389E-17   5.88785386277483E-03
      5.88785376961255E-03   0.00000000000000E+00   0.00000000000000E+00   5.49074779494528E-10   6.81704003883318E-34
      5.49074779494528E-10   5.63073216096616E-18
      1.27757077255497E-01
      0.00000000000000E+00   9.90243252928801E-11   0.00000000000000E+00   0.00000000000000E+00  -5.85965270092256E-10
      7.68644916596903E-34  -5.85965270092256E-10   6.38104684436206E-18   0.00000000000000E+00   0.00000000000000E+00
      0.00000000000000E+00   0.00000000000000E+00   0.00000000000000E+00   0.00000000000000E+00   0.00000000000000E+00
      4.28637064861080E-18   0.00000000000000E+00   0.00000000000000E+00   0.00000000000000E+00   0.00000000000000E+00
      1.00118288102011E-16  -1.41558564733517E-33   1.00118288102011E-16  -1.63048342150966E-17   6.38785386277483E-03
      6.38785376335203E-03   0.00000000000000E+00   0.00000000000000E+00   5.85965169973968E-10   6.46940730738270E-34
      5.85965169973968E-10   5.63741672212370E-18
      1.37757077255497E-01
      0.00000000000000E+00   1.05033639324623E-10   0.00000000000000E+00   0.00000000000000E+00  -6.21515392534666E-10
      7.50475106567642E-34  -6.21515392534666E-10   6.38078867444058E-18   0.00000000000000E+00   0.00000000000000E+00
      0.00000000000000E+00   0.00000000000000E+00   0.00000000000000E+00   0.00000000000000E+00   0.00000000000000E+00
      4.27979524018819E-18   0.00000000000000E+00   0.00000000000000E+00   0.00000000000000E+00   0.00000000000000E+00
      8.87218740724158E-17  -1.40699349996955E-33   8.87218740724158E-17  -1.63046863517207E-17   6.88785386277483E-03
      6.88785375731879E-03   0.00000000000000E+00   0.00000000000000E+00   6.21515303812792E-10   6.56518393401913E-34
      6.21515303812792E-10   5.64410243709195E-18
      1.47757077255497E-01
      0.00000000000000E+00   1.10823434134095E-10   0.00000000000000E+00   0.00000000000000E+00  -6.55765699602734E-10
      7.79360469259866E-34  -6.55765699602734E-10   6.38053051758403E-18   0.00000000000000E+00   0.00000000000000E+00
      0.00000000000000E+00   0.00000000000000E+00   0.00000000000000E+00   0.00000000000000E+00   0.00000000000000E+00
      4.27322055457665E-18   0.00000000000000E+00   0.00000000000000E+00   0.00000000000000E+00   0.00000000000000E+00
      8.75660335633110E-17  -1.42041321137037E-33   8.75660335633110E-17  -1.63045403723263E-17   7.38785386277483E-03
      7.38785375150595E-03   0.00000000000000E+00   0.00000000000000E+00   6.55765612036702E-10   6.41052742110506E-34
      6.55765612036702E-10   5.65078930016563E-18
      1.57757077255497E-01
      0.00000000000000E+00   1.16400419537285E-10   0.00000000000000E+00   0.00000000000000E+00  -6.88756036185172E-10
      7.81621051104428E-34  -6.88756036185172E-10   6.38027237365756E-18   0.00000000000000E+00   0.00000000000000E+00
      0.00000000000000E+00   0.00000000000000E+00   0.00000000000000E+00   0.00000000000000E+00   0.00000000000000E+00
      4.26664658576215E-18   0.00000000000000E+00   0.00000000000000E+00   0.00000000000000E+00   0.00000000000000E+00
      8.62668173469861E-17  -1.40513981778168E-33   8.62668173469861E-17  -1.63043962650852E-17   7.88785386277484E-03
      7.88785374590678E-03   0.00000000000000E+00   0.00000000000000E+00   6.88755949918355E-10   6.23518766677257E-34
      6.88755949918355E-10   5.65747730566554E-18
      1.67757077255497E-01
      0.00000000000000E+00   1.21771199342470E-10   0.00000000000000E+00   0.00000000000000E+00  -7.20525576020816E-10
      7.62585069148467E-34  -7.20525576020816E-10   6.38001424252635E-18   0.00000000000000E+00   0.00000000000000E+00
      0.00000000000000E+00   0.00000000000000E+00   0.00000000000000E+00   0.00000000000000E+00   0.00000000000000E+00
      4.26007332777768E-18   0.00000000000000E+00   0.00000000000000E+00   0.00000000000000E+00   0.00000000000000E+00
      5.03406562508229E-17  -1.37744654211889E-33   5.03406562508229E-17  -1.63042540182451E-17   8.38785386277484E-03
      8.38785374051465E-03   0.00000000000000E+00   0.00000000000000E+00   7.20525525680159E-10   6.14861472970427E-34
      7.20525525680159E-10   5.66416644794108E-18
      1.77757077255497E-01
      0.00000000000000E+00   1.26942246028539E-10   0.00000000000000E+00   0.00000000000000E+00  -7.51112720128174E-10
      7.49620137049310E-34  -7.51112720128174E-10   6.37975612405635E-18   0.00000000000000E+00   0.00000000000000E+00
      0.00000000000000E+00   0.00000000000000E+00   0.00000000000000E+00   0.00000000000000E+00   0.00000000000000E+00
      4.25350077470711E-18   0.00000000000000E+00   0.00000000000000E+00   0.00000000000000E+00   0.00000000000000E+00
      8.37246356801749E-17  -1.35634331442337E-33   8.37246356801749E-17  -1.63041136201382E-17   8.88785386277484E-03
      8.88785373532308E-03   0.00000000000000E+00   0.00000000000000E+00   7.51112636403538E-10   6.06723177374056E-34
      7.51112636403538E-10   5.67085672137478E-18
      1.87757077255497E-01
      0.00000000000000E+00   1.31919914049598E-10   0.00000000000000E+00   0.00000000000000E+00  -7.80555151597481E-10
      7.50371225246986E-34  -7.80555151597481E-10   6.37949801811405E-18   0.00000000000000E+00   0.00000000000000E+00
      0.00000000000000E+00   0.00000000000000E+00   0.00000000000000E+00   0.00000000000000E+00   0.00000000000000E+00
      4.24692892069219E-18   0.00000000000000E+00   0.00000000000000E+00   0.00000000000000E+00   0.00000000000000E+00
      8.27085589523061E-17  -1.32743329186366E-33   8.27085589523061E-17  -1.63039750591960E-17   9.38785386277484E-03
      9.38785373032567E-03   0.00000000000000E+00   0.00000000000000E+00   7.80555068888922E-10   5.77062066616672E-34
      7.80555068888922E-10   5.67754812038968E-18
      1.97757077255497E-01
      0.00000000000000E+00   1.36710404212952E-10   0.00000000000000E+00   0.00000000000000E+00  -8.08889662772495E-10