DF-ISE text

Info {
  version   = 1.0
  type      = xyplot
  datasets  = [
    "time"
    "source OuterVoltage" "source InnerVoltage" "source QuasiFermiPotential" "source DisplacementCurrent" "source eCurrent"
    "source hCurrent" "source TotalCurrent" "source Charge" "gate OuterVoltage" "gate InnerVoltage"
    "gate QuasiFermiPotential" "gate DisplacementCurrent" "gate eCurrent" "gate hCurrent" "gate TotalCurrent"
    "gate Charge" "substrate OuterVoltage" "substrate InnerVoltage" "substrate QuasiFermiPotential" "substrate DisplacementCurrent"
    "substrate eCurrent" "substrate hCurrent" "substrate TotalCurrent" "substrate Charge" "drain OuterVoltage"
    "drain InnerVoltage" "drain QuasiFermiPotential" "drain DisplacementCurrent" "drain eCurrent" "drain hCurrent"
    "drain TotalCurrent" "drain Charge" ]
  functions = [
    Time
    OuterVoltage InnerVoltage QuasiFermiPotential DisplacementCurrent eCurrent
    hCurrent TotalCurrent Charge OuterVoltage InnerVoltage
    QuasiFermiPotential DisplacementCurrent eCurrent hCurrent TotalCurrent
    Charge OuterVoltage InnerVoltage QuasiFermiPotential DisplacementCurrent
    eCurrent hCurrent TotalCurrent Charge OuterVoltage
    InnerVoltage QuasiFermiPotential DisplacementCurrent eCurrent hCurrent
    TotalCurrent Charge ]
}

Data {
      0.00000000000000E+00
      0.00000000000000E+00   0.00000000000000E+00   0.00000000000000E+00   0.00000000000000E+00  -4.44525718232647E-22
      1.74879097183494E-34  -4.44525718232472E-22   5.53680428604537E-18   0.00000000000000E+00   0.00000000000000E+00
      0.00000000000000E+00   0.00000000000000E+00   0.00000000000000E+00   0.00000000000000E+00   0.00000000000000E+00
      2.24257192119220E-18   0.00000000000000E+00   0.00000000000000E+00   0.00000000000000E+00   0.00000000000000E+00
      5.40541755988581E-19  -3.78003373833977E-34   5.40541755988581E-19  -1.39989420707354E-17   0.00000000000000E+00
      0.00000000000000E+00   0.00000000000000E+00   0.00000000000000E+00  -5.40097230270348E-19   2.03124276650482E-34
     -5.40097230270348E-19   6.21956586349789E-18
      0.00000000000000E+00
      0.00000000000000E+00   4.54676916868944E-19   0.00000000000000E+00   0.00000000000000E+00  -2.63960486061451E-19
      1.92994796421247E-34  -2.63960486061450E-19   5.53213225689854E-18   0.00000000000000E+00   0.00000000000000E+00
      0.00000000000000E+00   0.00000000000000E+00   0.00000000000000E+00   0.00000000000000E+00   0.00000000000000E+00
      2.23487603958203E-18   0.00000000000000E+00   0.00000000000000E+00   0.00000000000000E+00   0.00000000000000E+00
     -2.48763860820674E-18  -4.07643216767065E-34  -2.48763860820674E-18  -1.39821975278909E-17   0.00000000000000E+00
     -4.54676916868944E-18   0.00000000000000E+00   0.00000000000000E+00   2.75159909426819E-18   2.14648420345818E-34
      2.75159909426819E-18   6.21518923141032E-18
      1.00000000000000E-03
      0.00000000000000E+00   1.40007298980703E-12   0.00000000000000E+00   0.00000000000000E+00  -7.51560960111975E-12
      1.87431840880890E-34  -7.51560960111975E-12   5.53209269922594E-18   0.00000000000000E+00   0.00000000000000E+00
      0.00000000000000E+00   0.00000000000000E+00   0.00000000000000E+00   0.00000000000000E+00   0.00000000000000E+00
      2.23416902541999E-18   0.00000000000000E+00   0.00000000000000E+00   0.00000000000000E+00   0.00000000000000E+00
      4.39615306427829E-18  -4.15865474101432E-34   4.39615306427829E-18  -1.39821836944174E-17   5.00000000000000E-05
      4.99999985881908E-05   0.00000000000000E+00   0.00000000000000E+00   7.51560520496669E-12   2.28433633220542E-34
      7.51560520496669E-12   6.21592196977143E-18
      2.09333333333333E-03
      0.00000000000000E+00   2.92608421075610E-12   0.00000000000000E+00   0.00000000000000E+00  -1.57072547777861E-11
      2.21261900471906E-34  -1.57072547777861E-11   5.53204944976529E-18   0.00000000000000E+00   0.00000000000000E+00
      0.00000000000000E+00   0.00000000000000E+00   0.00000000000000E+00   0.00000000000000E+00   0.00000000000000E+00
      2.23339603147082E-18   0.00000000000000E+00   0.00000000000000E+00   0.00000000000000E+00   0.00000000000000E+00
      1.46816434800736E-19  -4.28085702153491E-34   1.46816434800736E-19  -1.39821685869826E-17   1.04666666666667E-04
      1.04666663716056E-04   0.00000000000000E+00   0.00000000000000E+00   1.57072546309697E-11   2.06823801681585E-34
      1.57072546309697E-11   6.21672310574643E-18
      3.29600000000000E-03
      0.00000000000000E+00   4.59875510865657E-12   0.00000000000000E+00   0.00000000000000E+00  -2.46861703473698E-11
      2.01357211640590E-34  -2.46861703473698E-11   5.53200187567474E-18   0.00000000000000E+00   0.00000000000000E+00
      0.00000000000000E+00   0.00000000000000E+00   0.00000000000000E+00   0.00000000000000E+00   0.00000000000000E+00
      2.23254574801311E-18   0.00000000000000E+00   0.00000000000000E+00   0.00000000000000E+00   0.00000000000000E+00
      3.30981629932551E-18  -4.13031577291467E-34   3.30981629932551E-18  -1.39821519894944E-17   1.64800000000000E-04
      1.64799995362694E-04   0.00000000000000E+00   0.00000000000000E+00   2.46861670375535E-11   2.11674365650877E-34
      2.46861670375535E-11   6.21760436580659E-18
      4.61893333333333E-03
      0.00000000000000E+00   6.43135815738878E-12   0.00000000000000E+00   0.00000000000000E+00  -3.45235469625609E-11
      2.14408338534631E-34  -3.45235469625609E-11   5.53194954455836E-18   0.00000000000000E+00   0.00000000000000E+00
      0.00000000000000E+00   0.00000000000000E+00   0.00000000000000E+00   0.00000000000000E+00   0.00000000000000E+00
      2.23161044816182E-18   0.00000000000000E+00   0.00000000000000E+00   0.00000000000000E+00   0.00000000000000E+00
     -3.39163085078728E-18  -4.26225523232992E-34  -3.39163085078728E-18  -1.39821337572721E-17   2.30946666666667E-04
      2.30946660181413E-04   0.00000000000000E+00   0.00000000000000E+00   3.45235503541917E-11   2.11817184698361E-34
      3.45235503541917E-11   6.21857376455189E-18
      6.07416000000000E-03
      0.00000000000000E+00   8.43819340066517E-12   0.00000000000000E+00   0.00000000000000E+00  -4.52962385678254E-11
      1.39572797065550E-34  -4.52962385678254E-11   5.53189198079448E-18   0.00000000000000E+00   0.00000000000000E+00
      0.00000000000000E+00   0.00000000000000E+00   0.00000000000000E+00   0.00000000000000E+00   0.00000000000000E+00
      2.23058163277380E-18   0.00000000000000E+00   0.00000000000000E+00   0.00000000000000E+00   0.00000000000000E+00
      3.48624517263655E-18  -3.56624908914471E-34   3.48624517263655E-18  -1.39821137320676E-17   3.03708000000000E-04
      3.03707991491101E-04   0.00000000000000E+00   0.00000000000000E+00   4.52962350815803E-11   2.17052111848921E-34
      4.52962350815803E-11   6.21964011849925E-18
      7.67490933333333E-03
      0.00000000000000E+00   1.06346862075674E-11   0.00000000000000E+00   0.00000000000000E+00  -5.70869624156145E-11
      1.72462279348364E-34  -5.70869624156145E-11   5.53182866121617E-18   0.00000000000000E+00   0.00000000000000E+00
      0.00000000000000E+00   0.00000000000000E+00   0.00000000000000E+00   0.00000000000000E+00   0.00000000000000E+00
      2.22944995331142E-18   0.00000000000000E+00   0.00000000000000E+00   0.00000000000000E+00   0.00000000000000E+00
     -5.20787378885052E-18  -4.13502779006741E-34  -5.20787378885052E-18  -1.39820917408967E-17   3.83745466666667E-04
      3.83745455942874E-04   0.00000000000000E+00   0.00000000000000E+00   5.70869676234883E-11   2.41040499658377E-34
      5.70869676234883E-11   6.22081312636918E-18
      9.43573360000000E-03
      0.00000000000000E+00   1.30373618106392E-11   0.00000000000000E+00   0.00000000000000E+00  -6.99844839826473E-11
      1.71843929432778E-34  -6.99844839826473E-11   5.53175901036003E-18   0.00000000000000E+00   0.00000000000000E+00
      0.00000000000000E+00   0.00000000000000E+00   0.00000000000000E+00   0.00000000000000E+00   0.00000000000000E+00
      2.22820512701062E-18   0.00000000000000E+00   0.00000000000000E+00   0.00000000000000E+00   0.00000000000000E+00
     -4.93941220496959E-18  -3.94763681381345E-34  -4.93941220496959E-18  -1.39820675947910E-17   4.71786680000000E-04
      4.71786666853412E-04   0.00000000000000E+00   0.00000000000000E+00   6.99844889220595E-11   2.22919751948567E-34
      6.99844889220595E-11   6.22210345742034E-18
      1.13726402933333E-02
      0.00000000000000E+00   1.56639221462849E-11   0.00000000000000E+00   0.00000000000000E+00  -8.40837551936736E-11
      2.15821380888759E-34  -8.40837551936736E-11   5.53168239524103E-18   0.00000000000000E+00   0.00000000000000E+00
      0.00000000000000E+00   0.00000000000000E+00   0.00000000000000E+00   0.00000000000000E+00   0.00000000000000E+00
      2.22683584358832E-18   0.00000000000000E+00   0.00000000000000E+00   0.00000000000000E+00   0.00000000000000E+00
      8.93776591606813E-19  -4.15767058489318E-34   8.93776591606812E-19  -1.39820410874708E-17   5.68632014666667E-04
      5.68631998871532E-04   0.00000000000000E+00   0.00000000000000E+00   8.40837542998970E-11   1.99945677600559E-34
      8.40837542998970E-11   6.22352284864143E-18
      1.35032376560000E-02
      0.00000000000000E+00   1.85332203928624E-11   0.00000000000000E+00   0.00000000000000E+00  -9.94859824691492E-11
      2.30172384081794E-34  -9.94859824691492E-11   5.53159811960522E-18   0.00000000000000E+00   0.00000000000000E+00
      0.00000000000000E+00   0.00000000000000E+00   0.00000000000000E+00   0.00000000000000E+00   0.00000000000000E+00
      2.22532966264680E-18   0.00000000000000E+00   0.00000000000000E+00   0.00000000000000E+00   0.00000000000000E+00
      5.31094891301604E-18  -4.23555883024542E-34   5.31094891301604E-18  -1.39820119939425E-17   6.75161882800000E-04
      6.75161864111554E-04   0.00000000000000E+00   0.00000000000000E+00   9.94859771582002E-11   1.93383498942748E-34
      9.94859771582002E-11   6.22508421169044E-18
      1.58468947549333E-02
      0.00000000000000E+00   2.16652800671139E-11   0.00000000000000E+00   0.00000000000000E+00  -1.16298601205939E-10
      1.74483920482940E-34  -1.16298601205939E-10   5.53150541760913E-18   0.00000000000000E+00   0.00000000000000E+00
      0.00000000000000E+00   0.00000000000000E+00   0.00000000000000E+00   0.00000000000000E+00   0.00000000000000E+00
      2.22367290085086E-18   0.00000000000000E+00   0.00000000000000E+00   0.00000000000000E+00   0.00000000000000E+00
     -7.88750990686104E-19  -3.71371966417270E-34  -7.88750990686104E-19  -1.39819800690220E-17   7.92344737746667E-04
      7.92344715899962E-04   0.00000000000000E+00   0.00000000000000E+00   1.16298601994690E-10   1.96888045934330E-34
      1.16298601994690E-10   6.22680175056200E-18
      1.84249175637600E-02
      0.00000000000000E+00   2.50812381895507E-11   0.00000000000000E+00   0.00000000000000E+00  -1.34635123289175E-10
      1.80500502155204E-34  -1.34635123289175E-10   5.53140344686803E-18   0.00000000000000E+00   0.00000000000000E+00
      0.00000000000000E+00   0.00000000000000E+00   0.00000000000000E+00   0.00000000000000E+00   0.00000000000000E+00
      2.22185050786108E-18   0.00000000000000E+00   0.00000000000000E+00   0.00000000000000E+00   0.00000000000000E+00
      2.08793814088056E-18  -3.76750858246020E-34   2.08793814088056E-18  -1.39819450457916E-17   9.21245878188001E-04
      9.21245852896765E-04   0.00000000000000E+00   0.00000000000000E+00   1.34635121201237E-10   1.96250356090816E-34
      1.34635121201237E-10   6.22869109106249E-18
      2.12607426534693E-02
      0.00000000000000E+00   2.88033302801153E-11   0.00000000000000E+00   0.00000000000000E+00  -1.54614841266650E-10
      2.07967783786100E-34  -1.54614841266650E-10   5.53129128081087E-18   0.00000000000000E+00   0.00000000000000E+00
      0.00000000000000E+00   0.00000000000000E+00   0.00000000000000E+00   0.00000000000000E+00   0.00000000000000E+00
      2.21984592990655E-18   0.00000000000000E+00   0.00000000000000E+00   0.00000000000000E+00   0.00000000000000E+00
      1.42721326753862E-18  -4.66780610921754E-34   1.42721326753862E-18  -1.39819066339990E-17   1.06303713267347E-03
      1.06303710362902E-03   0.00000000000000E+00   0.00000000000000E+00   1.54614839839437E-10   2.58812827135654E-34
      1.54614839839437E-10   6.23076942328160E-18
      2.43801502521496E-02
      0.00000000000000E+00   3.28547771436293E-11   0.00000000000000E+00   0.00000000000000E+00  -1.76362326854209E-10
      1.92925435070435E-34  -1.76362326854209E-10   5.53116790027212E-18   0.00000000000000E+00   0.00000000000000E+00
      0.00000000000000E+00   0.00000000000000E+00   0.00000000000000E+00   0.00000000000000E+00   0.00000000000000E+00
      2.21764095977021E-18   0.00000000000000E+00   0.00000000000000E+00   0.00000000000000E+00   0.00000000000000E+00
      5.05119017029681E-18  -3.91113679197717E-34   5.05119017029681E-18  -1.39818645184128E-17   1.21900751260748E-03
      1.21900747947774E-03   0.00000000000000E+00   0.00000000000000E+00   1.76362321803019E-10   1.98188244127281E-34
      1.76362321803019E-10   6.23305565837046E-18
      2.78114986106979E-02
      0.00000000000000E+00   3.72596207314257E-11   0.00000000000000E+00   0.00000000000000E+00  -2.00006702345468E-10
      1.70491043031511E-34  -2.00006702345468E-10   5.53103218424521E-18   0.00000000000000E+00   0.00000000000000E+00
      0.00000000000000E+00   0.00000000000000E+00   0.00000000000000E+00   0.00000000000000E+00   0.00000000000000E+00
      2.21521557183986E-18   0.00000000000000E+00   0.00000000000000E+00   0.00000000000000E+00   0.00000000000000E+00
     -1.06495782317489E-18  -3.71417810763463E-34  -1.06495782317489E-18  -1.39818183571536E-17   1.39057493053490E-03
      1.39057489296351E-03   0.00000000000000E+00   0.00000000000000E+00   2.00006703410426E-10   2.00926767731952E-34
      2.00006703410426E-10   6.23557060106858E-18
      3.15859818051010E-02
      0.00000000000000E+00   4.20426104721207E-11   0.00000000000000E+00   0.00000000000000E+00  -2.25680627673508E-10
      1.76098556427386E-34  -2.25680627673508E-10   5.53088289971373E-18   0.00000000000000E+00   0.00000000000000E+00
      0.00000000000000E+00   0.00000000000000E+00   0.00000000000000E+00   0.00000000000000E+00   0.00000000000000E+00
      2.21254774074309E-18   0.00000000000000E+00   0.00000000000000E+00   0.00000000000000E+00   0.00000000000000E+00
      1.37613180760105E-17  -4.28843684902711E-34   1.37613180760105E-17  -1.39817677800245E-17   1.57929909025505E-03
      1.57929904786074E-03   0.00000000000000E+00   0.00000000000000E+00   2.25680613912190E-10   2.52745128475326E-34
      2.25680613912190E-10   6.23833713956765E-18
      3.57379133189445E-02
      0.00000000000000E+00   4.72288581718328E-11   0.00000000000000E+00   0.00000000000000E+00  -2.53518940114388E-10
      2.46721088621542E-34  -2.53518940114388E-10   5.53071869046889E-18   0.00000000000000E+00   0.00000000000000E+00
      0.00000000000000E+00   0.00000000000000E+00   0.00000000000000E+00   0.00000000000000E+00   0.00000000000000E+00
      2.20961324194055E-18   0.00000000000000E+00   0.00000000000000E+00   0.00000000000000E+00   0.00000000000000E+00
      1.12233735726413E-18  -4.26884957622497E-34   1.12233735726413E-18  -1.39817123868731E-17   1.78689566594722E-03
      1.78689561832339E-03   0.00000000000000E+00   0.00000000000000E+00   2.53518938992051E-10   1.80163869000955E-34
      2.53518938992051E-10   6.24138045446370E-18
      4.03050379841723E-02
      0.00000000000000E+00   5.28435920339714E-11   0.00000000000000E+00   0.00000000000000E+00  -2.83656915040689E-10
      1.83980225062720E-34  -2.83656915040689E-10   5.53053806481221E-18   0.00000000000000E+00   0.00000000000000E+00
      0.00000000000000E+00   0.00000000000000E+00   0.00000000000000E+00   0.00000000000000E+00   0.00000000000000E+00
      2.20638543249370E-18   0.00000000000000E+00   0.00000000000000E+00   0.00000000000000E+00   0.00000000000000E+00
     -2.24156600096558E-18  -3.74926694722792E-34  -2.24156600096558E-18  -1.39816517460321E-17   2.01525189920861E-03
      2.01525184592322E-03   0.00000000000000E+00   0.00000000000000E+00   2.83656917282255E-10   1.90946469660071E-34
      2.83656917282255E-10   6.24472824872626E-18
      4.53288751159228E-02
      0.00000000000000E+00   5.89116715189664E-11   0.00000000000000E+00   0.00000000000000E+00  -3.16228024012986E-10
      1.24113527736988E-34  -3.16228024012986E-10   5.53033938203300E-18   0.00000000000000E+00   0.00000000000000E+00
      0.00000000000000E+00   0.00000000000000E+00   0.00000000000000E+00   0.00000000000000E+00   0.00000000000000E+00
      2.20283501004545E-18   0.00000000000000E+00   0.00000000000000E+00   0.00000000000000E+00   0.00000000000000E+00
      1.82342489493676E-17  -3.12406951690655E-34   1.82342489493676E-17  -1.39815853928882E-17   2.26644375579614E-03
      2.26644369639208E-03   0.00000000000000E+00   0.00000000000000E+00   3.16228005778737E-10   1.88293423953666E-34
      3.16228005778737E-10   6.24841100080973E-18
      5.08550959608485E-02
      0.00000000000000E+00   6.54571631307046E-11   0.00000000000000E+00   0.00000000000000E+00  -3.51361191917359E-10
      1.76410936176499E-34  -3.51361191917359E-10   5.53012083753849E-18   0.00000000000000E+00   0.00000000000000E+00
      0.00000000000000E+00   0.00000000000000E+00   0.00000000000000E+00   0.00000000000000E+00   0.00000000000000E+00
      2.19892974785896E-18   0.00000000000000E+00   0.00000000000000E+00   0.00000000000000E+00   0.00000000000000E+00
      9.69901658297737E-18  -3.41498615308438E-34   9.69901658297737E-18  -1.39815128286454E-17   2.54275479804242E-03
      2.54275473203835E-03   0.00000000000000E+00   0.00000000000000E+00   3.51361182218343E-10   1.65087679131939E-34
      3.51361182218343E-10   6.25246224324787E-18
      5.69339388902666E-02
      0.00000000000000E+00   7.25025961104167E-11   0.00000000000000E+00   0.00000000000000E+00  -3.89177409930372E-10
      1.90268910290062E-34  -3.89177409930372E-10   5.52988044650332E-18   0.00000000000000E+00   0.00000000000000E+00
      0.00000000000000E+00   0.00000000000000E+00   0.00000000000000E+00   0.00000000000000E+00   0.00000000000000E+00
      2.19463420356080E-18   0.00000000000000E+00   0.00000000000000E+00   0.00000000000000E+00   0.00000000000000E+00
      9.41836478945960E-18  -4.00317107812524E-34   9.41836478945960E-18  -1.39814335193795E-17   2.84669694451333E-03
      2.84669687140516E-03   0.00000000000000E+00   0.00000000000000E+00   3.89177400512007E-10   2.10048197522463E-34
      3.89177400512007E-10   6.25691886931539E-18
      6.36206661126266E-02
      0.00000000000000E+00   8.00683418026862E-11   0.00000000000000E+00   0.00000000000000E+00  -4.29785772777832E-10
      1.63401390044902E-34  -4.29785772777832E-10   5.52961602589028E-18   0.00000000000000E+00   0.00000000000000E+00
      0.00000000000000E+00   0.00000000000000E+00   0.00000000000000E+00   0.00000000000000E+00   0.00000000000000E+00
      2.18990939896823E-18   0.00000000000000E+00   0.00000000000000E+00   0.00000000000000E+00   0.00000000000000E+00
      4.65909542867286E-18  -3.69533953523058E-34   4.65909542867286E-18  -1.39813468954547E-17   3.18103330563133E-03
      3.18103322489448E-03   0.00000000000000E+00   0.00000000000000E+00   4.29785768118736E-10   2.06132563478156E-34
      4.29785768118736E-10   6.26182147059617E-18
      7.09760660572226E-02
      0.00000000000000E+00   8.81716501950622E-11   0.00000000000000E+00   0.00000000000000E+00  -4.73278751933348E-10
      2.11849995135098E-34  -4.73278751933348E-10   5.52932517468243E-18   0.00000000000000E+00   0.00000000000000E+00
      0.00000000000000E+00   0.00000000000000E+00   0.00000000000000E+00   0.00000000000000E+00   0.00000000000000E+00
      2.18471246817467E-18   0.00000000000000E+00   0.00000000000000E+00   0.00000000000000E+00   0.00000000000000E+00
      8.75147842349070E-18  -3.62418968130432E-34   8.75147842349070E-18  -1.39812523514590E-17   3.54880330286113E-03
      3.54880321395361E-03   0.00000000000000E+00   0.00000000000000E+00   4.73278743181869E-10   1.50568972995334E-34
      4.73278743181869E-10   6.26721470860185E-18
      7.90670059962782E-02
      0.00000000000000E+00   9.68256405353041E-11   0.00000000000000E+00   0.00000000000000E+00  -5.19726609441242E-10
      1.84384966723648E-34  -5.19726609441242E-10   5.52900525214770E-18   0.00000000000000E+00   0.00000000000000E+00
      0.00000000000000E+00   0.00000000000000E+00   0.00000000000000E+00   0.00000000000000E+00   0.00000000000000E+00
      2.17899627079536E-18   0.00000000000000E+00   0.00000000000000E+00   0.00000000000000E+00   0.00000000000000E+00
      1.88684878642311E-17  -3.75363912097429E-34   1.88684878642311E-17  -1.39811492468432E-17   3.95335029981391E-03
      3.95335020218053E-03   0.00000000000000E+00   0.00000000000000E+00   5.19726590572755E-10   1.90978945373782E-34
      5.19726590572755E-10   6.27314772390015E-18
      8.79670399292394E-02
      0.00000000000000E+00   1.06038145087982E-10   0.00000000000000E+00   0.00000000000000E+00  -5.69171179072390E-10
      1.96296644496790E-34  -5.69171179072390E-10   5.52865335394157E-18   0.00000000000000E+00   0.00000000000000E+00
      0.00000000000000E+00   0.00000000000000E+00   0.00000000000000E+00   0.00000000000000E+00   0.00000000000000E+00
      2.17270896687079E-18   0.00000000000000E+00   0.00000000000000E+00   0.00000000000000E+00   0.00000000000000E+00
      4.88659090177460E-17  -3.85511625698027E-34   4.88659090177460E-17  -1.39810369073593E-17   4.39835199646197E-03
      4.39835188953967E-03   0.00000000000000E+00   0.00000000000000E+00   5.69171130206482E-10   1.89214981201238E-34
      5.69171130206482E-10   6.27967458654690E-18
      9.77570772554967E-02
      0.00000000000000E+00   1.15810359198710E-10   0.00000000000000E+00   0.00000000000000E+00  -6.21618784174305E-10
      1.48640669463408E-34  -6.21618784174305E-10   5.52826628583280E-18   0.00000000000000E+00   0.00000000000000E+00
      0.00000000000000E+00   0.00000000000000E+00   0.00000000000000E+00   0.00000000000000E+00   0.00000000000000E+00
      2.16579354973749E-18   0.00000000000000E+00   0.00000000000000E+00   0.00000000000000E+00   0.00000000000000E+00
      5.79123040939269E-17  -3.35986156052489E-34   5.79123040939269E-17  -1.39809146276271E-17   4.88785386277484E-03
      4.88785374599933E-03   0.00000000000000E+00   0.00000000000000E+00   6.21618726262001E-10   1.87345486589081E-34
      6.21618726262001E-10   6.28685479205676E-18
      1.07757077255497E-01
      0.00000000000000E+00   1.25412549604436E-10   0.00000000000000E+00   0.00000000000000E+00  -6.73152810462634E-10
      2.07928700993261E-34  -6.73152810462634E-10   5.52787093781559E-18   0.00000000000000E+00   0.00000000000000E+00
      0.00000000000000E+00   0.00000000000000E+00   0.00000000000000E+00   0.00000000000000E+00   0.00000000000000E+00
      2.15873048386211E-18   0.00000000000000E+00   0.00000000000000E+00   0.00000000000000E+00   0.00000000000000E+00
      5.07699169851179E-17  -3.56498819212801E-34   5.07699169851179E-17  -1.39807911157267E-17   5.38785386277483E-03
      5.38785373631766E-03   0.00000000000000E+00   0.00000000000000E+00   6.73152759692717E-10   1.48570118219541E-34
      6.73152759692717E-10   6.29418969404904E-18
      1.17757077255497E-01
      0.00000000000000E+00   1.34643075276714E-10   0.00000000000000E+00   0.00000000000000E+00  -7.22691184675110E-10
      1.61917248257353E-34  -7.22691184675110E-10   5.52747561121758E-18   0.00000000000000E+00   0.00000000000000E+00
      0.00000000000000E+00   0.00000000000000E+00   0.00000000000000E+00   0.00000000000000E+00   0.00000000000000E+00
      2.15166808369015E-18   0.00000000000000E+00   0.00000000000000E+00   0.00000000000000E+00   0.00000000000000E+00
      5.40137833161966E-17  -3.62821602888815E-34   5.40137833161966E-17  -1.39806689995546E-17   5.88785386277483E-03
      5.88785372701081E-03   0.00000000000000E+00   0.00000000000000E+00   7.22691130661327E-10   2.00904354631462E-34
      7.22691130661327E-10   6.30152530464687E-18
      1.27757077255497E-01
      0.00000000000000E+00   1.43513879214118E-10   0.00000000000000E+00   0.00000000000000E+00  -7.70298151563599E-10
      1.95536641100453E-34  -7.70298151563599E-10   5.52708030585732E-18   0.00000000000000E+00   0.00000000000000E+00
      0.00000000000000E+00   0.00000000000000E+00   0.00000000000000E+00   0.00000000000000E+00   0.00000000000000E+00
      2.14460634472485E-18   0.00000000000000E+00   0.00000000000000E+00   0.00000000000000E+00   0.00000000000000E+00
      6.40426403464223E-17  -3.59012241189263E-34   6.40426403464223E-17  -1.39805482698265E-17   6.38785386277483E-03
      6.38785371806675E-03   0.00000000000000E+00   0.00000000000000E+00   7.70298087520959E-10   1.63475600088810E-34
      7.70298087520959E-10   6.30886161924428E-18
      1.37757077255497E-01
      0.00000000000000E+00   1.52036775741658E-10   0.00000000000000E+00   0.00000000000000E+00  -8.16037210654326E-10
      1.70752283841003E-34  -8.16037210654326E-10   5.52668502155211E-18   0.00000000000000E+00   0.00000000000000E+00
      0.00000000000000E+00   0.00000000000000E+00   0.00000000000000E+00   0.00000000000000E+00   0.00000000000000E+00
      2.13754526248365E-18   0.00000000000000E+00   0.00000000000000E+00   0.00000000000000E+00   0.00000000000000E+00
      6.00645317064448E-17  -3.17595139245473E-34   6.00645317064448E-17  -1.39804289172885E-17   6.88785386277483E-03
      6.88785370947355E-03   0.00000000000000E+00   0.00000000000000E+00   8.16037150589794E-10   1.46842855404470E-34
      8.16037150589794E-10   6.31619863325278E-18
      1.47757077255497E-01
      0.00000000000000E+00   1.60223390493419E-10   0.00000000000000E+00   0.00000000000000E+00  -8.59970869032116E-10
      1.82156549863111E-34  -8.59970869032116E-10   5.52628975811890E-18   0.00000000000000E+00   0.00000000000000E+00
      0.00000000000000E+00   0.00000000000000E+00   0.00000000000000E+00   0.00000000000000E+00   0.00000000000000E+00
      2.13048483251654E-18   0.00000000000000E+00   0.00000000000000E+00   0.00000000000000E+00   0.00000000000000E+00
      5.60189934929424E-17  -3.00687687527508E-34   5.60189934929424E-17  -1.39803109327439E-17   7.38785386277483E-03
      7.38785370121951E-03   0.00000000000000E+00   0.00000000000000E+00   8.59970813013122E-10   1.18531137664397E-34
      8.59970813013122E-10   6.32353634210840E-18
      1.57757077255497E-01
      0.00000000000000E+00   1.68085096303125E-10   0.00000000000000E+00   0.00000000000000E+00  -9.02160372662661E-10
      1.91004156448738E-34  -9.02160372662661E-10   5.52589451537684E-18   0.00000000000000E+00   0.00000000000000E+00
      0.00000000000000E+00   0.00000000000000E+00   0.00000000000000E+00   0.00000000000000E+00   0.00000000000000E+00
      2.12342505045893E-18   0.00000000000000E+00   0.00000000000000E+00   0.00000000000000E+00   0.00000000000000E+00
      4.55686262953128E-17  -3.47917788974970E-34   4.55686262953128E-17  -1.39801943071359E-17   7.88785386277484E-03
      7.88785369329311E-03   0.00000000000000E+00   0.00000000000000E+00   9.02160327094035E-10   1.56913632526231E-34
      9.02160327094035E-10   6.33087474130012E-18
      1.67757077255497E-01
      0.00000000000000E+00   1.75633102775483E-10   0.00000000000000E+00   0.00000000000000E+00  -9.42665830862127E-10
      1.76217705664662E-34  -9.42665830862127E-10   5.52549929314393E-18   0.00000000000000E+00   0.00000000000000E+00
      0.00000000000000E+00   0.00000000000000E+00   0.00000000000000E+00   0.00000000000000E+00   0.00000000000000E+00
      2.11636591194119E-18   0.00000000000000E+00   0.00000000000000E+00   0.00000000000000E+00   0.00000000000000E+00
      5.86744446036337E-17  -3.09840371215077E-34   5.86744446036337E-17  -1.39800790314144E-17   8.38785386277484E-03
      8.38785368568310E-03   0.00000000000000E+00   0.00000000000000E+00   9.42665772187682E-10   1.33622665550415E-34
      9.42665772187682E-10   6.33821382632921E-18
      1.77757077255497E-01
      0.00000000000000E+00   1.82878318519083E-10   0.00000000000000E+00   0.00000000000000E+00  -9.81546048708014E-10
      2.11810180909333E-34  -9.81546048708014E-10   5.52510409123687E-18   0.00000000000000E+00   0.00000000000000E+00
      0.00000000000000E+00   0.00000000000000E+00   0.00000000000000E+00   0.00000000000000E+00   0.00000000000000E+00
      2.10930741260763E-18   0.00000000000000E+00   0.00000000000000E+00   0.00000000000000E+00   0.00000000000000E+00
      5.01163105382590E-17  -3.73762923164548E-34   5.01163105382590E-17  -1.39799650965612E-17   8.88785386277484E-03
      8.88785367837845E-03   0.00000000000000E+00   0.00000000000000E+00   9.81545998591703E-10   1.61952742255215E-34
      9.81545998591703E-10   6.34555359271668E-18
      1.87757077255497E-01
      0.00000000000000E+00   1.89831434352271E-10   0.00000000000000E+00   0.00000000000000E+00  -1.01885843306395E-09
      2.05728500599064E-34  -1.01885843306395E-09   5.52470890947304E-18   0.00000000000000E+00   0.00000000000000E+00
      0.00000000000000E+00   0.00000000000000E+00   0.00000000000000E+00   0.00000000000000E+00   0.00000000000000E+00
      2.10224954815507E-18   0.00000000000000E+00   0.00000000000000E+00   0.00000000000000E+00   0.00000000000000E+00
      4.70018872212160E-17  -3.90213670183957E-34   4.70018872212160E-17  -1.39798524936463E-17   9.38785386277484E-03
      9.38785367136836E-03   0.00000000000000E+00   0.00000000000000E+00   1.01885838606206E-09   1.84485169584893E-34
      1.01885838606206E-09   6.35289403601822E-18
      1.97757077255497E-01
      0.00000000000000E+00   1.96502823274228E-10   0.00000000000000E+00   0.00000000000000E+00  -1.05465875282362E-09