DF-ISE text

Info {
  version   = 1.0
  type      = xyplot
  datasets  = [
    "time"
    "source OuterVoltage" "source InnerVoltage" "source QuasiFermiPotential" "source DisplacementCurrent" "source eCurrent"
    "source hCurrent" "source TotalCurrent" "source Charge" "gate OuterVoltage" "gate InnerVoltage"
    "gate QuasiFermiPotential" "gate DisplacementCurrent" "gate eCurrent" "gate hCurrent" "gate TotalCurrent"
    "gate Charge" "substrate OuterVoltage" "substrate InnerVoltage" "substrate QuasiFermiPotential" "substrate DisplacementCurrent"
    "substrate eCurrent" "substrate hCurrent" "substrate TotalCurrent" "substrate Charge" "drain OuterVoltage"
    "drain InnerVoltage" "drain QuasiFermiPotential" "drain DisplacementCurrent" "drain eCurrent" "drain hCurrent"
    "drain TotalCurrent" "drain Charge" ]
  functions = [
    Time
    OuterVoltage InnerVoltage QuasiFermiPotential DisplacementCurrent eCurrent
    hCurrent TotalCurrent Charge OuterVoltage InnerVoltage
    QuasiFermiPotential DisplacementCurrent eCurrent hCurrent TotalCurrent
    Charge OuterVoltage InnerVoltage QuasiFermiPotential DisplacementCurrent
    eCurrent hCurrent TotalCurrent Charge OuterVoltage
    InnerVoltage QuasiFermiPotential DisplacementCurrent eCurrent hCurrent
    TotalCurrent Charge ]
}

Data {
      0.00000000000000E+00
      0.00000000000000E+00   0.00000000000000E+00   0.00000000000000E+00   0.00000000000000E+00  -1.61216252200447E-21
      5.26508602100256E-34  -1.61216252200394E-21   5.71296232211680E-18   0.00000000000000E+00   0.00000000000000E+00
      0.00000000000000E+00   0.00000000000000E+00   0.00000000000000E+00   0.00000000000000E+00   0.00000000000000E+00
      1.81501390454268E-18   0.00000000000000E+00   0.00000000000000E+00   0.00000000000000E+00   0.00000000000000E+00
      4.95505995205273E-21  -9.94359201089686E-34   4.95505995205174E-21  -1.29738822226775E-17   0.00000000000000E+00
      0.00000000000000E+00   0.00000000000000E+00   0.00000000000000E+00  -3.34289743004826E-21   4.67850598989428E-34
     -3.34289743004779E-21   5.44590599601799E-18
      0.00000000000000E+00
      0.00000000000000E+00   8.83122473149296E-19   0.00000000000000E+00   0.00000000000000E+00  -8.71406389549175E-19
      5.45499614336199E-34  -8.71406389549175E-19   5.70820679870342E-18   0.00000000000000E+00   0.00000000000000E+00
      0.00000000000000E+00   0.00000000000000E+00   0.00000000000000E+00   0.00000000000000E+00   0.00000000000000E+00
      1.80782044051444E-18   0.00000000000000E+00   0.00000000000000E+00   0.00000000000000E+00   0.00000000000000E+00
      2.43779654716026E-18  -1.00509035780178E-33   2.43779654716026E-18  -1.29578301205699E-17   0.00000000000000E+00
     -4.41561236574648E-19   0.00000000000000E+00   0.00000000000000E+00  -1.56639015761108E-18   4.59590743465577E-34
     -1.56639015761108E-18   5.44180288135212E-18
      1.00000000000000E-03
      0.00000000000000E+00   4.04831223559710E-11   0.00000000000000E+00   0.00000000000000E+00  -2.26655103157259E-10
      5.33666916621022E-34  -2.26655103157259E-10   5.70738803597169E-18   0.00000000000000E+00   0.00000000000000E+00
      0.00000000000000E+00   0.00000000000000E+00   0.00000000000000E+00   0.00000000000000E+00   0.00000000000000E+00
      1.79678184885561E-18   0.00000000000000E+00   0.00000000000000E+00   0.00000000000000E+00   0.00000000000000E+00
     -2.71878992066801E-19  -9.63439878533030E-34  -2.71878992066802E-19  -1.29574021350193E-17   8.60000000000000E-04
      8.59999959328376E-04   0.00000000000000E+00   0.00000000000000E+00   2.26655103429138E-10   4.29772961912008E-34
      2.26655103429138E-10   5.45323225019197E-18
      2.08666666666667E-03
      0.00000000000000E+00   8.17211718022052E-11   0.00000000000000E+00   0.00000000000000E+00  -4.57528364014637E-10
      5.40927738272410E-34  -4.57528364014637E-10   5.70649844460218E-18   0.00000000000000E+00   0.00000000000000E+00
      0.00000000000000E+00   0.00000000000000E+00   0.00000000000000E+00   0.00000000000000E+00   0.00000000000000E+00
      1.78478916379101E-18   0.00000000000000E+00   0.00000000000000E+00   0.00000000000000E+00   0.00000000000000E+00
     -2.43891136705653E-20  -9.93506364199581E-34  -2.43891136705663E-20  -1.29569438435352E-17   1.79453333333333E-03
      1.79453325123247E-03   0.00000000000000E+00   0.00000000000000E+00   4.57528364039027E-10   4.52578625927170E-34
      4.57528364039027E-10   5.46565623514208E-18
      3.27475555555556E-03
      0.00000000000000E+00   1.23579963619204E-10   0.00000000000000E+00   0.00000000000000E+00  -6.91864816827109E-10
      5.18982629842923E-34  -6.91864816827109E-10   5.70552597936638E-18   0.00000000000000E+00   0.00000000000000E+00
      0.00000000000000E+00   0.00000000000000E+00   0.00000000000000E+00   0.00000000000000E+00   0.00000000000000E+00
      1.77168019896613E-18   0.00000000000000E+00   0.00000000000000E+00   0.00000000000000E+00   0.00000000000000E+00
     -4.73717169429212E-20  -9.64582498927870E-34  -4.73717169429221E-20  -1.29564507791868E-17   2.81628977777778E-03
      2.81628965362492E-03   0.00000000000000E+00   0.00000000000000E+00   6.91864816874481E-10   4.45599869084947E-34
      6.91864816874481E-10   5.47924460085424E-18
      4.57373274074074E-03
      0.00000000000000E+00   1.65666664619093E-10   0.00000000000000E+00   0.00000000000000E+00  -9.27463754201691E-10
      5.43713627952424E-34  -9.27463754201691E-10   5.70446293333132E-18   0.00000000000000E+00   0.00000000000000E+00
      0.00000000000000E+00   0.00000000000000E+00   0.00000000000000E+00   0.00000000000000E+00   0.00000000000000E+00
      1.75735130654789E-18   0.00000000000000E+00   0.00000000000000E+00   0.00000000000000E+00   0.00000000000000E+00
     -3.66996944218859E-19  -9.34620192074401E-34  -3.66996944218860E-19  -1.29559211474250E-17   3.93341015703704E-03
      3.93340999060408E-03   0.00000000000000E+00   0.00000000000000E+00   9.27463754568688E-10   3.90906564121978E-34
      9.27463754568688E-10   5.49410690754571E-18
      5.99394779654321E-03
      0.00000000000000E+00   2.07561225104060E-10   0.00000000000000E+00   0.00000000000000E+00  -1.16197353428539E-09
      5.39325662529113E-34  -1.16197353428539E-09   5.70330088471796E-18   0.00000000000000E+00   0.00000000000000E+00
      0.00000000000000E+00   0.00000000000000E+00   0.00000000000000E+00   0.00000000000000E+00   0.00000000000000E+00
      1.74168925452681E-18   0.00000000000000E+00   0.00000000000000E+00   0.00000000000000E+00   0.00000000000000E+00
     -6.61779456093241E-20  -9.32841186402813E-34  -6.61779456093250E-20  -1.29553532376258E-17   5.15479510502716E-03
      5.15479489650811E-03   0.00000000000000E+00   0.00000000000000E+00   1.16197353435156E-09   3.93515523873699E-34
      1.16197353435156E-09   5.51036309838101E-18
      7.54671625755391E-03
      0.00000000000000E+00   2.48816982039003E-10   0.00000000000000E+00   0.00000000000000E+00  -1.39289551381153E-09
      5.49780617159338E-34  -1.39289551381153E-09   5.70203063086271E-18   0.00000000000000E+00   0.00000000000000E+00
      0.00000000000000E+00   0.00000000000000E+00   0.00000000000000E+00   0.00000000000000E+00   0.00000000000000E+00
      1.72457034545961E-18   0.00000000000000E+00   0.00000000000000E+00   0.00000000000000E+00   0.00000000000000E+00
     -2.40068803473103E-20  -9.25615093954505E-34  -2.40068803473112E-20  -1.29547454710985E-17   6.49017598149636E-03
      6.49017573153394E-03   0.00000000000000E+00   0.00000000000000E+00   1.39289551383553E-09   3.75834476795167E-34
      1.39289551383553E-09   5.52814449477619E-18
      9.24440977492561E-03
      0.00000000000000E+00   2.88968769206763E-10   0.00000000000000E+00   0.00000000000000E+00  -1.61762960747456E-09
      5.28405632832698E-34  -1.61762960747456E-09   5.70064211600665E-18   0.00000000000000E+00   0.00000000000000E+00
      0.00000000000000E+00   0.00000000000000E+00   0.00000000000000E+00   0.00000000000000E+00   0.00000000000000E+00
      1.70585945365953E-18   0.00000000000000E+00   0.00000000000000E+00   0.00000000000000E+00   0.00000000000000E+00
      2.62846121887684E-20  -8.64645574911971E-34   2.62846121887675E-20  -1.29540964578453E-17   7.95019240643603E-03
      7.95019211614038E-03   0.00000000000000E+00   0.00000000000000E+00   1.61762960744828E-09   3.36239942079273E-34
      1.61762960744828E-09   5.54759488817919E-18
      1.11005546872520E-02
      0.00000000000000E+00   3.27546298279836E-10   0.00000000000000E+00   0.00000000000000E+00  -1.83354908042528E-09
      5.42273886460629E-34  -1.83354908042528E-09   5.69912435240808E-18   0.00000000000000E+00   0.00000000000000E+00
      0.00000000000000E+00   0.00000000000000E+00   0.00000000000000E+00   0.00000000000000E+00   0.00000000000000E+00
      1.68540897377292E-18   0.00000000000000E+00   0.00000000000000E+00   0.00000000000000E+00   0.00000000000000E+00
     -4.08357884288275E-20  -8.63114471369038E-34  -4.08357884288284E-20  -1.29534050644875E-17   9.54647703103672E-03
      9.54647670199037E-03   0.00000000000000E+00   0.00000000000000E+00   1.83354908046612E-09   3.20840584908408E-34
      1.83354908046612E-09   5.56887173830645E-18
      1.31299397913955E-02
      0.00000000000000E+00   3.64090172038619E-10   0.00000000000000E+00   0.00000000000000E+00  -2.03809107732092E-09
      5.30176240008712E-34  -2.03809107732092E-09   5.69746533414106E-18   0.00000000000000E+00   0.00000000000000E+00
      0.00000000000000E+00   0.00000000000000E+00   0.00000000000000E+00   0.00000000000000E+00   0.00000000000000E+00
      1.66305767361984E-18   0.00000000000000E+00   0.00000000000000E+00   0.00000000000000E+00   0.00000000000000E+00
      2.84059555956813E-19  -8.36019523396067E-34   2.84059555956812E-19  -1.29526704958160E-17   1.12917482206002E-02
      1.12917478548472E-02   0.00000000000000E+00   0.00000000000000E+00   2.03809107703686E-09   3.05843283387355E-34
      2.03809107703686E-09   5.59214748805513E-18
      1.53487341719258E-02
      0.00000000000000E+00   3.98173470534018E-10   0.00000000000000E+00   0.00000000000000E+00  -2.22887711123939E-09
      5.30045295176451E-34  -2.22887711123939E-09   5.69565194282232E-18   0.00000000000000E+00   0.00000000000000E+00
      0.00000000000000E+00   0.00000000000000E+00   0.00000000000000E+00   0.00000000000000E+00   0.00000000000000E+00
      1.63862943927216E-18   0.00000000000000E+00   0.00000000000000E+00   0.00000000000000E+00   0.00000000000000E+00
     -2.92761515199179E-19  -8.02838751201844E-34  -2.92761515199180E-19  -1.29518923879996E-17   1.31999113878562E-02
      1.31999109878694E-02   0.00000000000000E+00   0.00000000000000E+00   2.22887711153216E-09   2.72793456025393E-34
      2.22887711153216E-09   5.61761100590511E-18
      1.77746160279722E-02
      0.00000000000000E+00   4.29425801603326E-10   0.00000000000000E+00   0.00000000000000E+00  -2.40384833287557E-09
      5.51624653985810E-34  -2.40384833287557E-09   5.69366984452353E-18   0.00000000000000E+00   0.00000000000000E+00
      0.00000000000000E+00   0.00000000000000E+00   0.00000000000000E+00   0.00000000000000E+00   0.00000000000000E+00
      1.61193190405980E-18   0.00000000000000E+00   0.00000000000000E+00   0.00000000000000E+00   0.00000000000000E+00
     -1.86964105289999E-19  -8.17945836258564E-34  -1.86964105290000E-19  -1.29510709171708E-17   1.52861697840561E-02
      1.52861693526807E-02   0.00000000000000E+00   0.00000000000000E+00   2.40384833306254E-09   2.66321182272754E-34
      2.40384833306254E-09   5.64546916858746E-18
      2.04269135239163E-02
      0.00000000000000E+00   4.57560254209659E-10   0.00000000000000E+00   0.00000000000000E+00  -2.56141596014380E-09
      5.49445845777917E-34  -2.56141596014380E-09   5.69150337705341E-18   0.00000000000000E+00   0.00000000000000E+00
      0.00000000000000E+00   0.00000000000000E+00   0.00000000000000E+00   0.00000000000000E+00   0.00000000000000E+00
      1.58275494997271E-18   0.00000000000000E+00   0.00000000000000E+00   0.00000000000000E+00   0.00000000000000E+00
      1.78619500667217E-19  -7.83441308723544E-34   1.78619500667216E-19  -1.29502069245633E-17   1.75671456305680E-02
      1.75671451709374E-02   0.00000000000000E+00   0.00000000000000E+00   2.56141595996518E-09   2.33995462945627E-34
      2.56141595996518E-09   5.67594859753722E-18
      2.33267587861485E-02
      0.00000000000000E+00   4.82402282728690E-10   0.00000000000000E+00   0.00000000000000E+00  -2.70062313253807E-09
      5.23571792190723E-34  -2.70062313253807E-09   5.68913542653574E-18   0.00000000000000E+00   0.00000000000000E+00
      0.00000000000000E+00   0.00000000000000E+00   0.00000000000000E+00   0.00000000000000E+00   0.00000000000000E+00
      1.55086906640286E-18   0.00000000000000E+00   0.00000000000000E+00   0.00000000000000E+00   0.00000000000000E+00
      3.36739183474805E-19  -7.43507242915054E-34   3.36739183474804E-19  -1.29493020556486E-17   2.00610125560877E-02
      2.00610120715109E-02   0.00000000000000E+00   0.00000000000000E+00   2.70062313220133E-09   2.19935450724331E-34
      2.70062313220133E-09   5.70929756271000E-18
      2.64972562728556E-02
      0.00000000000000E+00   5.03917785386118E-10   0.00000000000000E+00   0.00000000000000E+00  -2.82130152127252E-09
      5.06760482807423E-34  -2.82130152127252E-09   5.68654729242672E-18   0.00000000000000E+00   0.00000000000000E+00
      0.00000000000000E+00   0.00000000000000E+00   0.00000000000000E+00   0.00000000000000E+00   0.00000000000000E+00
      1.51602355488623E-18   0.00000000000000E+00   0.00000000000000E+00   0.00000000000000E+00   0.00000000000000E+00
     -2.28809447710943E-19  -7.16834979984931E-34  -2.28809447710944E-19  -1.29483589184280E-17   2.27876403946559E-02
      2.27876398884764E-02   0.00000000000000E+00   0.00000000000000E+00   2.82130152150133E-09   2.10074497177508E-34
      2.82130152150133E-09   5.74578807111498E-18
      2.99636668583222E-02
      0.00000000000000E+00   5.22237651971494E-10   0.00000000000000E+00   0.00000000000000E+00  -2.92420836637205E-09
      5.29510592562092E-34  -2.92420836637205E-09   5.68371853960753E-18   0.00000000000000E+00   0.00000000000000E+00
      0.00000000000000E+00   0.00000000000000E+00   0.00000000000000E+00   0.00000000000000E+00   0.00000000000000E+00
      1.47794456076742E-18   0.00000000000000E+00   0.00000000000000E+00   0.00000000000000E+00   0.00000000000000E+00
     -5.72208439521044E-19  -7.18279713381016E-34  -5.72208439521044E-19  -1.29473812554778E-17   2.57687534981571E-02
      2.57687529735877E-02   0.00000000000000E+00   0.00000000000000E+00   2.92420836694426E-09   1.88769120818923E-34
      2.92420836694426E-09   5.78571815510293E-18
      3.37536090984323E-02
      0.00000000000000E+00   5.37674363449790E-10   0.00000000000000E+00   0.00000000000000E+00  -3.01111803070251E-09
      5.21378326909535E-34  -3.01111803070251E-09   5.68062683644504E-18   0.00000000000000E+00   0.00000000000000E+00
      0.00000000000000E+00   0.00000000000000E+00   0.00000000000000E+00   0.00000000000000E+00   0.00000000000000E+00
      1.43633291348781E-18   0.00000000000000E+00   0.00000000000000E+00   0.00000000000000E+00   0.00000000000000E+00
     -5.06524664769406E-19  -6.81653104126732E-34  -5.06524664769407E-19  -1.29463741296414E-17   2.90281038246517E-02
      2.90281032845924E-02   0.00000000000000E+00   0.00000000000000E+00   3.01111803120903E-09   1.60274777217196E-34
      3.01111803120903E-09   5.82941437970853E-18
      3.78972792809526E-02
      0.00000000000000E+00   5.50723472074659E-10   0.00000000000000E+00   0.00000000000000E+00  -3.08482899157774E-09
      5.23213236610124E-34  -3.08482899157774E-09   5.67724777750143E-18   0.00000000000000E+00   0.00000000000000E+00
      0.00000000000000E+00   0.00000000000000E+00   0.00000000000000E+00   0.00000000000000E+00   0.00000000000000E+00
      1.39086175818096E-18   0.00000000000000E+00   0.00000000000000E+00   0.00000000000000E+00   0.00000000000000E+00
     -1.01347068175986E-18  -6.64562073076073E-34  -1.01347068175986E-18  -1.29453441241468E-17   3.25916601816192E-02
      3.25916596284736E-02   0.00000000000000E+00   0.00000000000000E+00   3.08482899259122E-09   1.41348836465949E-34
      3.08482899259122E-09   5.87723458846444E-18
      4.24276920138415E-02
      0.00000000000000E+00   5.62044335630126E-10   0.00000000000000E+00   0.00000000000000E+00  -3.14905535324781E-09
      5.16823912844977E-34  -3.14905535324781E-09   5.67355468976515E-18   0.00000000000000E+00   0.00000000000000E+00
      0.00000000000000E+00   0.00000000000000E+00   0.00000000000000E+00   0.00000000000000E+00   0.00000000000000E+00
      1.34117395521953E-18   0.00000000000000E+00   0.00000000000000E+00   0.00000000000000E+00   0.00000000000000E+00
      4.71784865324783E-19  -6.40757345055419E-34   4.71784865324783E-19  -1.29442995533423E-17   3.64878151319037E-02
      3.64878145674156E-02   0.00000000000000E+00   0.00000000000000E+00   3.14905535277603E-09   1.23933432210441E-34
      3.14905535277603E-09   5.92957090835760E-18
      4.73809432684667E-02
      0.00000000000000E+00   5.72409177601653E-10   0.00000000000000E+00   0.00000000000000E+00  -3.20814022536293E-09
      5.49950119273041E-34  -3.20814022536293E-09   5.66951842195048E-18   0.00000000000000E+00   0.00000000000000E+00
      0.00000000000000E+00   0.00000000000000E+00   0.00000000000000E+00   0.00000000000000E+00   0.00000000000000E+00
      1.28687923435019E-18   0.00000000000000E+00   0.00000000000000E+00   0.00000000000000E+00   0.00000000000000E+00
     -1.07702161628991E-18  -6.55411992306847E-34  -1.07702161628991E-18  -1.29432506934066E-17   4.07476112108814E-02
      4.07476106360217E-02   0.00000000000000E+00   0.00000000000000E+00   3.20814022643995E-09   1.05461873033806E-34
      3.20814022643995E-09   5.98685303710599E-18
      5.27964979735236E-02
      0.00000000000000E+00   5.82608066730515E-10   0.00000000000000E+00   0.00000000000000E+00  -3.26652302030047E-09
      5.29646544265610E-34  -3.26652302030047E-09   5.66510711609947E-18   0.00000000000000E+00   0.00000000000000E+00
      0.00000000000000E+00   0.00000000000000E+00   0.00000000000000E+00   0.00000000000000E+00   0.00000000000000E+00
      1.22755108538701E-18   0.00000000000000E+00   0.00000000000000E+00   0.00000000000000E+00   0.00000000000000E+00
     -5.18323314761581E-18  -6.14640356535947E-34  -5.18323314761581E-18  -1.29422100382005E-17   4.54049882572303E-02
      4.54049876721801E-02   0.00000000000000E+00   0.00000000000000E+00   3.26652302548370E-09   8.49938122703367E-35
      3.26652302548370E-09   6.04955183671406E-18
      5.87175044510525E-02
      0.00000000000000E+00   5.93336527756943E-10   0.00000000000000E+00   0.00000000000000E+00  -3.32810191706683E-09
      5.08321975273083E-34  -3.32810191706683E-09   5.66028595891065E-18   0.00000000000000E+00   0.00000000000000E+00
      0.00000000000000E+00   0.00000000000000E+00   0.00000000000000E+00   0.00000000000000E+00   0.00000000000000E+00
      1.16272337317048E-18   0.00000000000000E+00   0.00000000000000E+00   0.00000000000000E+00   0.00000000000000E+00
     -1.30280624370231E-19  -5.81692637529936E-34  -1.30280624370231E-19  -1.29411925922422E-17   5.04970538279052E-02
      5.04970532321530E-02   0.00000000000000E+00   0.00000000000000E+00   3.32810191719711E-09   7.33706622568523E-35
      3.32810191719711E-09   6.11818326016106E-18
      6.51516648233006E-02
      0.00000000000000E+00   6.05064569941738E-10   0.00000000000000E+00   0.00000000000000E+00  -3.39550657787965E-09
      5.23339657866564E-34  -3.39550657787965E-09   5.65504903121611E-18   0.00000000000000E+00   0.00000000000000E+00
      0.00000000000000E+00   0.00000000000000E+00   0.00000000000000E+00   0.00000000000000E+00   0.00000000000000E+00
      1.09231841379324E-18   0.00000000000000E+00   0.00000000000000E+00   0.00000000000000E+00   0.00000000000000E+00
     -1.66277490088902E-19  -5.85125014307840E-34  -1.66277490088903E-19  -1.29402216871392E-17   5.60304317480385E-02
      5.60304311405991E-02   0.00000000000000E+00   0.00000000000000E+00   3.39550657804593E-09   6.17853564412750E-35
      3.39550657804593E-09   6.19285424212987E-18
      7.21434524278101E-02
      0.00000000000000E+00   6.18160048678304E-10   0.00000000000000E+00   0.00000000000000E+00  -3.47082030737312E-09
      5.27243265727453E-34  -3.47082030737312E-09   5.64936051231713E-18   0.00000000000000E+00   0.00000000000000E+00
      0.00000000000000E+00   0.00000000000000E+00   0.00000000000000E+00   0.00000000000000E+00   0.00000000000000E+00
      1.01585634973053E-18   0.00000000000000E+00   0.00000000000000E+00   0.00000000000000E+00   0.00000000000000E+00
     -1.61313854836820E-21  -5.78672993226853E-34  -1.61313854836878E-21  -1.29393166370278E-17   6.20433690879167E-02
      6.20433684674401E-02   0.00000000000000E+00   0.00000000000000E+00   3.47082030737473E-09   5.14297274994006E-35
      3.47082030737473E-09   6.27409977498019E-18
      7.97411949580438E-02
      0.00000000000000E+00   6.32824708880021E-10   0.00000000000000E+00   0.00000000000000E+00  -3.55520001488513E-09
      5.49246206916591E-34  -3.55520001488513E-09   5.64318151606835E-18   0.00000000000000E+00   0.00000000000000E+00
      0.00000000000000E+00   0.00000000000000E+00   0.00000000000000E+00   0.00000000000000E+00   0.00000000000000E+00
      9.32815986953832E-19   0.00000000000000E+00   0.00000000000000E+00   0.00000000000000E+00   0.00000000000000E+00
     -2.15970283661305E-19  -5.88360270765012E-34  -2.15970283661306E-19  -1.29384997986193E-17   6.85774276639177E-02
      6.85774270288522E-02   0.00000000000000E+00   0.00000000000000E+00   3.55520001510110E-09   3.91140638484207E-35
      3.55520001510110E-09   6.36250229559711E-18
      8.79974085075645E-02
      0.00000000000000E+00   6.49146835417406E-10   0.00000000000000E+00   0.00000000000000E+00  -3.64915937728486E-09
      5.58148043231343E-34  -3.64915937728486E-09   5.63646983060594E-18   0.00000000000000E+00   0.00000000000000E+00
      0.00000000000000E+00   0.00000000000000E+00   0.00000000000000E+00   0.00000000000000E+00   0.00000000000000E+00
      8.42631265451020E-19   0.00000000000000E+00   0.00000000000000E+00   0.00000000000000E+00   0.00000000000000E+00
     -4.85380718454025E-19  -5.88652076766851E-34  -4.85380718454025E-19  -1.29377969146433E-17   7.56777713165054E-02
      7.56777706652057E-02   0.00000000000000E+00   0.00000000000000E+00   3.64915937777024E-09   3.05040335355073E-35
      3.64915937777024E-09   6.45869581858642E-18
      9.69691605647102E-02
      0.00000000000000E+00   6.67225355669901E-10   0.00000000000000E+00   0.00000000000000E+00  -3.75329617428433E-09
      5.06106371268532E-34  -3.75329617428433E-09   5.62917962137113E-18   0.00000000000000E+00   0.00000000000000E+00
      0.00000000000000E+00   0.00000000000000E+00   0.00000000000000E+00   0.00000000000000E+00   0.00000000000000E+00
      7.44687366705193E-19   0.00000000000000E+00   0.00000000000000E+00   0.00000000000000E+00   0.00000000000000E+00
     -4.32336274424369E-19  -5.28943816941986E-34  -4.32336274424370E-19  -1.29372373887051E-17   8.33934780856508E-02
      8.33934774163736E-02   0.00000000000000E+00   0.00000000000000E+00   3.75329617471667E-09   2.28374456734525E-35
      3.75329617471667E-09   6.56337040062878E-18
      1.06718464466809E-01
      0.00000000000000E+00   6.87253552029787E-10   0.00000000000000E+00   0.00000000000000E+00  -3.86876498289501E-09
      5.37290599283837E-34  -3.86876498289501E-09   5.62126111463726E-18   0.00000000000000E+00   0.00000000000000E+00
      0.00000000000000E+00   0.00000000000000E+00   0.00000000000000E+00   0.00000000000000E+00   0.00000000000000E+00
      6.38316447251589E-19   0.00000000000000E+00   0.00000000000000E+00   0.00000000000000E+00   0.00000000000000E+00
     -6.36161166041874E-19  -5.53995155051427E-34  -6.36161166041874E-19  -1.29368545274763E-17   9.17778794414554E-02
      9.17778787522766E-02   0.00000000000000E+00   0.00000000000000E+00   3.86876498353117E-09   1.67045557675904E-35
      3.86876498353117E-09   6.67727696558746E-18
      1.16718464466809E-01
      0.00000000000000E+00   7.08259096498217E-10   0.00000000000000E+00   0.00000000000000E+00  -3.98998481737821E-09
      5.23993099375777E-34  -3.98998481737821E-09   5.61314260461699E-18   0.00000000000000E+00   0.00000000000000E+00
      0.00000000000000E+00   0.00000000000000E+00   0.00000000000000E+00   0.00000000000000E+00   0.00000000000000E+00
      5.29271233603545E-19   0.00000000000000E+00   0.00000000000000E+00   0.00000000000000E+00   0.00000000000000E+00
     -6.33076461291093E-19  -5.36224807655777E-34  -6.33076461291093E-19  -1.29366888958256E-17   1.00377879441455E-01
      1.00377878731423E-01   0.00000000000000E+00   0.00000000000000E+00   3.98998481801128E-09   1.22317082800000E-35
      3.98998481801128E-09   6.79427505760517E-18
      1.26718464466809E-01
      0.00000000000000E+00   7.29799452871407E-10   0.00000000000000E+00   0.00000000000000E+00  -4.11440605132637E-09
      5.04733399978298E-34  -4.11440605132637E-09   5.60502759376748E-18   0.00000000000000E+00   0.00000000000000E+00
      0.00000000000000E+00   0.00000000000000E+00   0.00000000000000E+00   0.00000000000000E+00   0.00000000000000E+00
      4.20282815085151E-19   0.00000000000000E+00   0.00000000000000E+00   0.00000000000000E+00   0.00000000000000E+00
     -1.81953776953537E-19  -5.13863195158672E-34  -1.81953776953538E-19  -1.29367376762608E-17   1.08977879441455E-01
      1.08977878710048E-01   0.00000000000000E+00   0.00000000000000E+00   4.11440605150832E-09   9.12979518037445E-36
      4.11440605150832E-09   6.91142726740816E-18
      1.36718464466809E-01
      0.00000000000000E+00   7.51933087389568E-10   0.00000000000000E+00   0.00000000000000E+00  -4.24236530837495E-09
      5.26183047016374E-34  -4.24236530837495E-09   5.59691593989898E-18   0.00000000000000E+00   0.00000000000000E+00
      0.00000000000000E+00   0.00000000000000E+00   0.00000000000000E+00   0.00000000000000E+00   0.00000000000000E+00
      3.11346904870680E-19   0.00000000000000E+00   0.00000000000000E+00   0.00000000000000E+00   0.00000000000000E+00
     -4.38510291796100E-19  -5.32733373005699E-34  -4.38510291796101E-19  -1.29369867191369E-17   1.17577879441455E-01
      1.17577878688083E-01   0.00000000000000E+00   0.00000000000000E+00   4.24236530881346E-09   6.55032598932369E-36
      4.24236530881346E-09   7.02872387436727E-18
      1.46718464466809E-01
      0.00000000000000E+00   7.74700057163400E-10   0.00000000000000E+00   0.00000000000000E+00  -4.37409512297207E-09
      5.17637495403808E-34  -4.37409512297207E-09   5.58880751442716E-18   0.00000000000000E+00   0.00000000000000E+00
      0.00000000000000E+00   0.00000000000000E+00   0.00000000000000E+00   0.00000000000000E+00   0.00000000000000E+00
      2.02459791951272E-19   0.00000000000000E+00   0.00000000000000E+00   0.00000000000000E+00   0.00000000000000E+00
     -1.54888519225276E-19  -5.22457096317168E-34  -1.54888519225277E-19  -1.29374231939508E-17   1.26177879441455E-01
      1.26177878665486E-01   0.00000000000000E+00   0.00000000000000E+00   4.37409512312696E-09   4.81960091336012E-36
      4.37409512312696E-09   7.14615588757229E-18
      1.56718464466809E-01
      0.00000000000000E+00   7.98123840003851E-10   0.00000000000000E+00   0.00000000000000E+00  -4.50973388264199E-09
      5.17562908128573E-34  -4.50973388264199E-09   5.58070220174213E-18   0.00000000000000E+00   0.00000000000000E+00
      0.00000000000000E+00   0.00000000000000E+00   0.00000000000000E+00   0.00000000000000E+00   0.00000000000000E+00
      9.36182360408319E-20   0.00000000000000E+00   0.00000000000000E+00   0.00000000000000E+00   0.00000000000000E+00
      3.21309174768735E-19  -5.21293058218732E-34   3.21309174768734E-19  -1.29380354086894E-17   1.34777879441455E-01
      1.34777878642236E-01   0.00000000000000E+00   0.00000000000000E+00   4.50973388232069E-09   3.73015009015820E-36
      4.50973388232069E-09   7.26371497090644E-18
      1.66718464466809E-01
      0.00000000000000E+00   8.22216783287778E-10   0.00000000000000E+00   0.00000000000000E+00  -4.64935708201873E-09
      5.17799453229735E-34  -4.64935708201873E-09   5.57259989964609E-18   0.00000000000000E+00   0.00000000000000E+00
      0.00000000000000E+00   0.00000000000000E+00   0.00000000000000E+00   0.00000000000000E+00   0.00000000000000E+00
     -1.51806011221552E-20   0.00000000000000E+00   0.00000000000000E+00   0.00000000000000E+00   0.00000000000000E+00
     -3.51579697348562E-19  -5.20466521103413E-34  -3.51579697348562E-19  -1.29388126797649E-17   1.43377879441455E-01
      1.43377878618326E-01   0.00000000000000E+00   0.00000000000000E+00   4.64935708237031E-09   2.66706787367838E-36
      4.64935708237031E-09   7.38139338124088E-18
      1.76718464466809E-01
      0.00000000000000E+00   8.46987244444708E-10   0.00000000000000E+00   0.00000000000000E+00  -4.79301817583876E-09
      4.84731918235033E-34  -4.79301817583876E-09   5.56450052231566E-18   0.00000000000000E+00   0.00000000000000E+00
      0.00000000000000E+00   0.00000000000000E+00   0.00000000000000E+00   0.00000000000000E+00   0.00000000000000E+00
     -1.23939166021633E-19   0.00000000000000E+00   0.00000000000000E+00   0.00000000000000E+00   0.00000000000000E+00
     -1.79115307497413E-20  -4.86736236296712E-34  -1.79115307497418E-20  -1.29397452826344E-17   1.51977879441455E-01
      1.51977878593750E-01   0.00000000000000E+00   0.00000000000000E+00   4.79301817585668E-09   2.00431806167859E-36
      4.79301817585668E-09   7.49918392634034E-18
      1.86718464466809E-01
      0.00000000000000E+00   8.72443603865348E-10   0.00000000000000E+00   0.00000000000000E+00  -4.94077187366896E-09