DF-ISE text

Info {
  version   = 1.0
  type      = xyplot
  datasets  = [
    "time"
    "source OuterVoltage" "source InnerVoltage" "source QuasiFermiPotential" "source DisplacementCurrent" "source eCurrent"
    "source hCurrent" "source TotalCurrent" "source Charge" "gate OuterVoltage" "gate InnerVoltage"
    "gate QuasiFermiPotential" "gate DisplacementCurrent" "gate eCurrent" "gate hCurrent" "gate TotalCurrent"
    "gate Charge" "substrate OuterVoltage" "substrate InnerVoltage" "substrate QuasiFermiPotential" "substrate DisplacementCurrent"
    "substrate eCurrent" "substrate hCurrent" "substrate TotalCurrent" "substrate Charge" "drain OuterVoltage"
    "drain InnerVoltage" "drain QuasiFermiPotential" "drain DisplacementCurrent" "drain eCurrent" "drain hCurrent"
    "drain TotalCurrent" "drain Charge" ]
  functions = [
    Time
    OuterVoltage InnerVoltage QuasiFermiPotential DisplacementCurrent eCurrent
    hCurrent TotalCurrent Charge OuterVoltage InnerVoltage
    QuasiFermiPotential DisplacementCurrent eCurrent hCurrent TotalCurrent
    Charge OuterVoltage InnerVoltage QuasiFermiPotential DisplacementCurrent
    eCurrent hCurrent TotalCurrent Charge OuterVoltage
    InnerVoltage QuasiFermiPotential DisplacementCurrent eCurrent hCurrent
    TotalCurrent Charge ]
}

Data {
      0.00000000000000E+00
      0.00000000000000E+00   0.00000000000000E+00   0.00000000000000E+00   0.00000000000000E+00   4.59448123196616E-20
      2.03867069697479E-34   4.59448123196618E-20   6.47142833907018E-18   0.00000000000000E+00   0.00000000000000E+00
      0.00000000000000E+00   0.00000000000000E+00   0.00000000000000E+00   0.00000000000000E+00   0.00000000000000E+00
      4.03978806963607E-18   0.00000000000000E+00   0.00000000000000E+00   0.00000000000000E+00   0.00000000000000E+00
     -4.61942281864753E-20  -4.03649744791502E-34  -4.61942281864757E-20  -1.56175814292537E-17   0.00000000000000E+00
      0.00000000000000E+00   0.00000000000000E+00   0.00000000000000E+00   2.49415866813685E-22   1.99782675094022E-34
      2.49415866813885E-22   5.10636502054751E-18
      0.00000000000000E+00
      0.00000000000000E+00   0.00000000000000E+00   0.00000000000000E+00   0.00000000000000E+00  -1.87447039432732E-18
      1.69425341311460E-34  -1.87447039432732E-18   6.46667077185922E-18   0.00000000000000E+00   0.00000000000000E+00
      0.00000000000000E+00   0.00000000000000E+00   0.00000000000000E+00   0.00000000000000E+00   0.00000000000000E+00
      4.03045176842794E-18   0.00000000000000E+00   0.00000000000000E+00   0.00000000000000E+00   0.00000000000000E+00
      2.13990235473281E-18  -3.75379506666028E-34   2.13990235473281E-18  -1.55995552474186E-17   0.00000000000000E+00
      0.00000000000000E+00   0.00000000000000E+00   0.00000000000000E+00  -2.65431960405495E-19   2.05954165354568E-34
     -2.65431960405495E-19   5.10243270713149E-18
      1.00000000000000E-03
      0.00000000000000E+00   1.24240180769708E-11   0.00000000000000E+00   0.00000000000000E+00  -6.69527146670420E-11
      1.93144333021059E-34  -6.69527146670420E-11   6.46616975217752E-18   0.00000000000000E+00   0.00000000000000E+00
      0.00000000000000E+00   0.00000000000000E+00   0.00000000000000E+00   0.00000000000000E+00   0.00000000000000E+00
      4.02087791876148E-18   0.00000000000000E+00   0.00000000000000E+00   0.00000000000000E+00   0.00000000000000E+00
      6.04013968394871E-19  -4.16525829323684E-34   6.04013968394871E-19  -1.55995168947311E-17   8.60000000000000E-04
      8.59999987568209E-04   0.00000000000000E+00   0.00000000000000E+00   6.69527140630280E-11   2.23381496302626E-34
      6.69527140630280E-11   5.11246922379209E-18
      2.08666666666667E-03
      0.00000000000000E+00   2.51506650222640E-11   0.00000000000000E+00   0.00000000000000E+00  -1.35533392005464E-10
      2.00963434201636E-34  -1.35533392005464E-10   6.46562535347113E-18   0.00000000000000E+00   0.00000000000000E+00
      0.00000000000000E+00   0.00000000000000E+00   0.00000000000000E+00   0.00000000000000E+00   0.00000000000000E+00
      4.01047619912388E-18   0.00000000000000E+00   0.00000000000000E+00   0.00000000000000E+00   0.00000000000000E+00
      4.02046885342523E-16  -4.06807227428603E-34   4.02046885342523E-16  -1.55994800432742E-17   1.79453333333333E-03
      1.79453330816699E-03   0.00000000000000E+00   0.00000000000000E+00   1.35532989958578E-10   2.05843793226967E-34
      1.35532989958578E-10   5.12337849067925E-18
      3.28200000000000E-03
      0.00000000000000E+00   3.82334431506452E-11   0.00000000000000E+00   0.00000000000000E+00  -2.06028141434664E-10
      1.94805707494771E-34  -2.06028141434664E-10   6.46502656557383E-18   0.00000000000000E+00   0.00000000000000E+00
      0.00000000000000E+00   0.00000000000000E+00   0.00000000000000E+00   0.00000000000000E+00   0.00000000000000E+00
      3.99903651452898E-18   0.00000000000000E+00   0.00000000000000E+00   0.00000000000000E+00   0.00000000000000E+00
      5.88052571461144E-16  -3.86214440235582E-34   5.88052571461144E-16  -1.55994452396268E-17   2.82252000000000E-03
      2.82251996174308E-03   0.00000000000000E+00   0.00000000000000E+00   2.06027553382092E-10   1.91408732740811E-34
      2.06027553382092E-10   5.13538215952399E-18
      4.59686666666667E-03
      0.00000000000000E+00   5.15616983819505E-11   0.00000000000000E+00   0.00000000000000E+00  -2.77840079893824E-10
      2.05754923487806E-34  -2.77840079893824E-10   6.46436795917551E-18   0.00000000000000E+00   0.00000000000000E+00
      0.00000000000000E+00   0.00000000000000E+00   0.00000000000000E+00   0.00000000000000E+00   0.00000000000000E+00
      3.98645548663086E-18   0.00000000000000E+00   0.00000000000000E+00   0.00000000000000E+00   0.00000000000000E+00
      8.55838538555681E-16  -3.93277049483940E-34   8.55838538555681E-16  -1.55994137993542E-17   3.95330533333333E-03
      3.95330528174045E-03   0.00000000000000E+00   0.00000000000000E+00   2.77839224055286E-10   1.87522125996133E-34
      2.77839224055286E-10   5.14859035354787E-18
      6.04322000000000E-03
      0.00000000000000E+00   6.50093338619018E-11   0.00000000000000E+00   0.00000000000000E+00  -3.50289180910757E-10
      1.98781988137606E-34  -3.50289180910757E-10   6.46364356364027E-18   0.00000000000000E+00   0.00000000000000E+00
      0.00000000000000E+00   0.00000000000000E+00   0.00000000000000E+00   0.00000000000000E+00   0.00000000000000E+00
      3.97261947320613E-18   0.00000000000000E+00   0.00000000000000E+00   0.00000000000000E+00   0.00000000000000E+00
      1.17974023768213E-15  -3.71368293520042E-34   1.17974023768213E-15  -1.55993873740514E-17   5.19716920000000E-03
      5.19716913495191E-03   0.00000000000000E+00   0.00000000000000E+00   3.50288001170519E-10   1.72586305382436E-34
      3.50288001170519E-10   5.16312433720505E-18
      7.63420866666667E-03
      0.00000000000000E+00   7.84341211265780E-11   0.00000000000000E+00   0.00000000000000E+00  -4.22607952629838E-10
      2.00706059812089E-34  -4.22607952629838E-10   6.46284681310723E-18   0.00000000000000E+00   0.00000000000000E+00
      0.00000000000000E+00   0.00000000000000E+00   0.00000000000000E+00   0.00000000000000E+00   0.00000000000000E+00
      3.95740355332153E-18   0.00000000000000E+00   0.00000000000000E+00   0.00000000000000E+00   0.00000000000000E+00
      5.15224925082897E-19  -3.65314354934840E-34   5.15224925082896E-19  -1.55993680193411E-17   6.56541945333333E-03
      6.56541937485338E-03   0.00000000000000E+00   0.00000000000000E+00   4.22607952114613E-10   1.64608295122751E-34
      4.22607952114613E-10   5.17911765291229E-18
      9.37368960888889E-03
      0.00000000000000E+00   9.16042119136093E-11   0.00000000000000E+00   0.00000000000000E+00  -4.93548963791967E-10
      2.07214591273463E-34  -4.93548963791967E-10   6.46197579797443E-18   0.00000000000000E+00   0.00000000000000E+00
      0.00000000000000E+00   0.00000000000000E+00   0.00000000000000E+00   0.00000000000000E+00   0.00000000000000E+00
      3.94077181142528E-18   0.00000000000000E+00   0.00000000000000E+00   0.00000000000000E+00   0.00000000000000E+00
     -1.84951346075722E-19  -3.60014587582161E-34  -1.84951346075723E-19  -1.55993582971170E-17   8.06137306364445E-03
      8.06137297198750E-03   0.00000000000000E+00   0.00000000000000E+00   4.93548963976918E-10   1.52799996308698E-34
      4.93548963976918E-10   5.19661068771726E-18
      1.12755221057185E-02
      0.00000000000000E+00   1.04366549723781E-10   0.00000000000000E+00   0.00000000000000E+00  -5.62287849914088E-10
      1.97558620013372E-34  -5.62287849914088E-10   6.46102360279683E-18   0.00000000000000E+00   0.00000000000000E+00
      0.00000000000000E+00   0.00000000000000E+00   0.00000000000000E+00   0.00000000000000E+00   0.00000000000000E+00
      3.92259282346263E-18   0.00000000000000E+00   0.00000000000000E+00   0.00000000000000E+00   0.00000000000000E+00
      1.06552092109515E-18  -3.35178293444565E-34   1.06552092109515E-18  -1.55993610774546E-17   9.69694901091793E-03
      9.69694890649211E-03   0.00000000000000E+00   0.00000000000000E+00   5.62287848848567E-10   1.37619673431193E-34
      5.62287848848567E-10   5.21574465119524E-18
      1.33548589689189E-02
      0.00000000000000E+00   1.16566132327122E-10   0.00000000000000E+00   0.00000000000000E+00  -6.27990968677381E-10
      2.07992709389481E-34  -6.27990968677381E-10   6.45998266881030E-18   0.00000000000000E+00   0.00000000000000E+00
      0.00000000000000E+00   0.00000000000000E+00   0.00000000000000E+00   0.00000000000000E+00   0.00000000000000E+00
      3.90272300498890E-18   0.00000000000000E+00   0.00000000000000E+00   0.00000000000000E+00   0.00000000000000E+00
     -4.20379941686210E-19  -3.45674057299974E-34  -4.20379941686211E-19  -1.55993798099192E-17   1.14851787132703E-02
      1.14851785966388E-02   0.00000000000000E+00   0.00000000000000E+00   6.27990969097761E-10   1.37681347910493E-34
      6.27990969097761E-10   5.23667413612011E-18
      1.56282672726847E-02
      0.00000000000000E+00   1.28051905439689E-10   0.00000000000000E+00   0.00000000000000E+00  -6.89846858034667E-10
      1.57665165984398E-34  -6.89846858034667E-10   6.45884473403855E-18   0.00000000000000E+00   0.00000000000000E+00
      0.00000000000000E+00   0.00000000000000E+00   0.00000000000000E+00   0.00000000000000E+00   0.00000000000000E+00
      3.88100548766598E-18   0.00000000000000E+00   0.00000000000000E+00   0.00000000000000E+00   0.00000000000000E+00
      3.66075630047483E-19  -2.86909098849424E-34   3.66075630047483E-19  -1.55994186187365E-17   1.34403098545088E-02
      1.34403097263859E-02   0.00000000000000E+00   0.00000000000000E+00   6.89846857668590E-10   1.29243932865026E-34
      6.89846857668590E-10   5.25956839703193E-18
      1.81138603514686E-02
      0.00000000000000E+00   1.38683792060529E-10   0.00000000000000E+00   0.00000000000000E+00  -7.47104170995186E-10
      1.82869981027168E-34  -7.47104170995186E-10   6.45760076779944E-18   0.00000000000000E+00   0.00000000000000E+00
      0.00000000000000E+00   0.00000000000000E+00   0.00000000000000E+00   0.00000000000000E+00   0.00000000000000E+00
      3.85726889160593E-18   0.00000000000000E+00   0.00000000000000E+00   0.00000000000000E+00   0.00000000000000E+00
      6.65545689845979E-19  -2.91062589840978E-34   6.65545689845979E-19  -1.55994824107992E-17   1.55779199022630E-02
      1.55779197635030E-02   0.00000000000000E+00   0.00000000000000E+00   7.47104170329640E-10   1.08192608813810E-34
      7.47104170329640E-10   5.28461275139386E-18
      2.08314421176057E-02
      0.00000000000000E+00   1.48341325417756E-10   0.00000000000000E+00   0.00000000000000E+00  -7.99117981518750E-10
      1.99408353805051E-34  -7.99117981518750E-10   6.45624089902157E-18   0.00000000000000E+00   0.00000000000000E+00
      0.00000000000000E+00   0.00000000000000E+00   0.00000000000000E+00   0.00000000000000E+00   0.00000000000000E+00
      3.83132598161588E-18   0.00000000000000E+00   0.00000000000000E+00   0.00000000000000E+00   0.00000000000000E+00
     -1.61107856250318E-19  -3.07486131215385E-34  -1.61107856250318E-19  -1.55995769948664E-17   1.79150402211409E-02
      1.79150400727185E-02   0.00000000000000E+00   0.00000000000000E+00   7.99117981679858E-10   1.08077777410334E-34
      7.99117981679858E-10   5.31201011422894E-18
      2.38026648485822E-02
      0.00000000000000E+00   1.56932613474123E-10   0.00000000000000E+00   0.00000000000000E+00  -8.45398417246127E-10
      2.14105525498328E-34  -8.45398417246127E-10   6.45475433784487E-18   0.00000000000000E+00   0.00000000000000E+00
      0.00000000000000E+00   0.00000000000000E+00   0.00000000000000E+00   0.00000000000000E+00   0.00000000000000E+00
      3.80297219865084E-18   0.00000000000000E+00   0.00000000000000E+00   0.00000000000000E+00   0.00000000000000E+00
     -4.12137895215620E-19  -3.22584478314273E-34  -4.12137895215620E-19  -1.55997092159750E-17   2.04702917697807E-02
      2.04702916127627E-02   0.00000000000000E+00   0.00000000000000E+00   8.45398417658264E-10   1.08478952815945E-34
      8.45398417658264E-10   5.34198267947930E-18
      2.70512017011165E-02
      0.00000000000000E+00   1.64404180090613E-10   0.00000000000000E+00   0.00000000000000E+00  -8.85663430482751E-10
      1.99336679886881E-34  -8.85663430482751E-10   6.45312928976720E-18   0.00000000000000E+00   0.00000000000000E+00
      0.00000000000000E+00   0.00000000000000E+00   0.00000000000000E+00   0.00000000000000E+00   0.00000000000000E+00
      3.77198405047851E-18   0.00000000000000E+00   0.00000000000000E+00   0.00000000000000E+00   0.00000000000000E+00
     -9.29079265777980E-19  -2.90321626508578E-34  -9.29079265777980E-19  -1.55998871004160E-17   2.32640334629602E-02
      2.32640332984666E-02   0.00000000000000E+00   0.00000000000000E+00   8.85663431411831E-10   9.09849466216975E-35
      8.85663431411831E-10   5.37477376017034E-18
      3.06029353265541E-02
      0.00000000000000E+00   1.70750075105927E-10   0.00000000000000E+00   0.00000000000000E+00  -9.19887696514877E-10
      2.07776974599205E-34  -9.19887696514877E-10   6.45135286171166E-18   0.00000000000000E+00   0.00000000000000E+00
      0.00000000000000E+00   0.00000000000000E+00   0.00000000000000E+00   0.00000000000000E+00   0.00000000000000E+00
      3.73811735107490E-18   0.00000000000000E+00   0.00000000000000E+00   0.00000000000000E+00   0.00000000000000E+00
     -1.52420235431861E-18  -2.86175143545323E-34  -1.52420235431861E-18  -1.56001200159248E-17   2.63185243808365E-02
      2.63185242099934E-02   0.00000000000000E+00   0.00000000000000E+00   9.19887698039079E-10   7.83981689461184E-35
      9.19887698039079E-10   5.41064980313823E-18
      3.44861640903658E-02
      0.00000000000000E+00   1.76019587457511E-10   0.00000000000000E+00   0.00000000000000E+00  -9.48343888024560E-10
      2.06980058372757E-34  -9.48343888024560E-10   6.44941095917425E-18   0.00000000000000E+00   0.00000000000000E+00
      0.00000000000000E+00   0.00000000000000E+00   0.00000000000000E+00   0.00000000000000E+00   0.00000000000000E+00
      3.70110529018346E-18   0.00000000000000E+00   0.00000000000000E+00   0.00000000000000E+00   0.00000000000000E+00
     -2.91133711300299E-18  -2.76303828630197E-34  -2.91133711300300E-18  -1.56004188419404E-17   2.96581011177146E-02
      2.96581009415988E-02   0.00000000000000E+00   0.00000000000000E+00   9.48343890935897E-10   6.93237702574393E-35
      9.48343890935897E-10   5.44990259258273E-18
      3.87318275388000E-02
      0.00000000000000E+00   1.80321213792652E-10   0.00000000000000E+00   0.00000000000000E+00  -9.71623828697121E-10
      2.26624088808001E-34  -9.71623828697121E-10   6.44728817368181E-18   0.00000000000000E+00   0.00000000000000E+00
      0.00000000000000E+00   0.00000000000000E+00   0.00000000000000E+00   0.00000000000000E+00   0.00000000000000E+00
      3.66065631939420E-18   0.00000000000000E+00   0.00000000000000E+00   0.00000000000000E+00   0.00000000000000E+00
     -5.94034607001206E-18  -2.91535197841541E-34  -5.94034607001206E-18  -1.56007961531081E-17   3.33093716833680E-02
      3.33093715029483E-02   0.00000000000000E+00   0.00000000000000E+00   9.71623834637467E-10   6.49111090335394E-35
      9.71623834637467E-10   5.49285166003215E-18
      4.33737529090880E-02
      0.00000000000000E+00   1.83821199514828E-10   0.00000000000000E+00   0.00000000000000E+00  -9.90629477796917E-10
      2.00100245932182E-34  -9.90629477796917E-10   6.44496765958801E-18   0.00000000000000E+00   0.00000000000000E+00
      0.00000000000000E+00   0.00000000000000E+00   0.00000000000000E+00   0.00000000000000E+00   0.00000000000000E+00
      3.61645182883176E-18   0.00000000000000E+00   0.00000000000000E+00   0.00000000000000E+00   0.00000000000000E+00
     -1.02990825905538E-17  -2.57912200613863E-34  -1.02990825905538E-17  -1.56012664046272E-17   3.73014275018156E-02
      3.73014273178950E-02   0.00000000000000E+00   0.00000000000000E+00   9.90629488096000E-10   5.78119546816812E-35
      9.90629488096000E-10   5.53984691620744E-18
      4.84489246472695E-02
      0.00000000000000E+00   1.86732185855738E-10   0.00000000000000E+00   0.00000000000000E+00  -1.00651131641465E-09
      1.92993676929909E-34  -1.00651131641465E-09   6.44243099949210E-18   0.00000000000000E+00   0.00000000000000E+00
      0.00000000000000E+00   0.00000000000000E+00   0.00000000000000E+00   0.00000000000000E+00   0.00000000000000E+00
      3.56814360712262E-18   0.00000000000000E+00   0.00000000000000E+00   0.00000000000000E+00   0.00000000000000E+00
     -1.44940301298674E-17  -2.35660309720923E-34  -1.44940301298674E-17  -1.56018461340430E-17   4.16660751966518E-02
      4.16660750098210E-02   0.00000000000000E+00   0.00000000000000E+00   1.00651133090868E-09   4.26666327910135E-35
      1.00651133090868E-09   5.59127152742831E-18
      5.39977790810147E-02
      0.00000000000000E+00   1.89292869480584E-10   0.00000000000000E+00   0.00000000000000E+00  -1.02055799358466E-09
      1.87797478414421E-34  -1.02055799358466E-09   6.43965805714437E-18   0.00000000000000E+00   0.00000000000000E+00
      0.00000000000000E+00   0.00000000000000E+00   0.00000000000000E+00   0.00000000000000E+00   0.00000000000000E+00
      3.51535105402091E-18   0.00000000000000E+00   0.00000000000000E+00   0.00000000000000E+00   0.00000000000000E+00
     -2.06347134168909E-17  -2.33813535594526E-34  -2.06347134168909E-17  -1.56025541640852E-17   4.64380900096726E-02
      4.64380898202845E-02   0.00000000000000E+00   0.00000000000000E+00   1.02055801421937E-09   4.60160571801044E-35
      1.02055801421937E-09   5.64754505291991E-18
      6.00645265952427E-02
      0.00000000000000E+00   1.91740576731086E-10   0.00000000000000E+00   0.00000000000000E+00  -1.03404989306201E-09
      1.79937293970393E-34  -1.03404989306201E-09   6.43662681697357E-18   0.00000000000000E+00   0.00000000000000E+00
      0.00000000000000E+00   0.00000000000000E+00   0.00000000000000E+00   0.00000000000000E+00   0.00000000000000E+00
      3.45765813590949E-18   0.00000000000000E+00   0.00000000000000E+00   0.00000000000000E+00   0.00000000000000E+00
     -2.52934103094440E-17  -2.13295169246584E-34  -2.52934103094440E-17  -1.56034118205123E-17   5.16554928719087E-02
      5.16554926800796E-02   0.00000000000000E+00   0.00000000000000E+00   1.03404991835542E-09   3.33578752761912E-35
      1.03404991835542E-09   5.70912686762924E-18
      6.66975038774654E-02
      0.00000000000000E+00   1.94278450256223E-10   0.00000000000000E+00   0.00000000000000E+00  -1.04808222733813E-09
      2.29055020548711E-34  -1.04808222733813E-09   6.43331320941983E-18   0.00000000000000E+00   0.00000000000000E+00
      0.00000000000000E+00   0.00000000000000E+00   0.00000000000000E+00   0.00000000000000E+00   0.00000000000000E+00
      3.39461006639840E-18   0.00000000000000E+00   0.00000000000000E+00   0.00000000000000E+00   0.00000000000000E+00
     -2.93914870022926E-17  -2.56811254587581E-34  -2.93914870022926E-17  -1.56044431695854E-17   5.73598533346202E-02
      5.73598531402642E-02   0.00000000000000E+00   0.00000000000000E+00   1.04808225672961E-09   2.77562340388707E-35
      1.04808225672961E-09   5.77651989376714E-18
      7.39495590393622E-02
      0.00000000000000E+00   1.97043944889700E-10   0.00000000000000E+00   0.00000000000000E+00  -1.06339291942266E-09
      2.04279628590065E-34  -1.06339291942266E-09   6.42969092006371E-18   0.00000000000000E+00   0.00000000000000E+00
      0.00000000000000E+00   0.00000000000000E+00   0.00000000000000E+00   0.00000000000000E+00   0.00000000000000E+00
      3.32570968389682E-18   0.00000000000000E+00   0.00000000000000E+00   0.00000000000000E+00   0.00000000000000E+00
      8.51127119749917E-19  -2.28245157321123E-34   8.51127119749917E-19  -1.56056752694375E-17   6.35966207738514E-02
      6.35966205767457E-02   0.00000000000000E+00   0.00000000000000E+00   1.06339291857154E-09   2.39655287310582E-35
      1.06339291857154E-09   5.85027466547699E-18
      8.18301256486233E-02
      0.00000000000000E+00   2.00090472479216E-10   0.00000000000000E+00   0.00000000000000E+00  -1.08026800397444E-09
      2.09023427474496E-34  -1.08026800397444E-09   6.42575532188084E-18   0.00000000000000E+00   0.00000000000000E+00
      0.00000000000000E+00   0.00000000000000E+00   0.00000000000000E+00   0.00000000000000E+00   0.00000000000000E+00
      3.25087249450215E-18   0.00000000000000E+00   0.00000000000000E+00   0.00000000000000E+00   0.00000000000000E+00
      5.76025126773140E-19  -2.25219194228540E-34   5.76025126773140E-19  -1.56071291364680E-17   7.03739080578160E-02
      7.03739078576850E-02   0.00000000000000E+00   0.00000000000000E+00   1.08026800339841E-09   1.61957667540440E-35
      1.08026800339841E-09   5.93050132008502E-18
      9.03936746973538E-02
      0.00000000000000E+00   2.03457938644640E-10   0.00000000000000E+00   0.00000000000000E+00  -1.09892696770038E-09
      2.20267565478283E-34  -1.09892696770038E-09   6.42147929240701E-18   0.00000000000000E+00   0.00000000000000E+00
      0.00000000000000E+00   0.00000000000000E+00   0.00000000000000E+00   0.00000000000000E+00   0.00000000000000E+00
      3.16958624513713E-18   0.00000000000000E+00   0.00000000000000E+00   0.00000000000000E+00   0.00000000000000E+00
     -4.65409916237740E-19  -2.34182543351146E-34  -4.65409916237740E-19  -1.56088345847998E-17   7.77385602397243E-02
      7.77385600362528E-02   0.00000000000000E+00   0.00000000000000E+00   1.09892696816579E-09   1.39149778728628E-35
      1.09892696816579E-09   6.01776904725562E-18
      9.96993979969742E-02
      0.00000000000000E+00   2.07172578835156E-10   0.00000000000000E+00   0.00000000000000E+00  -1.11951879070397E-09
      1.57456338166582E-34  -1.11951879070397E-09   6.41683335784947E-18   0.00000000000000E+00   0.00000000000000E+00
      0.00000000000000E+00   0.00000000000000E+00   0.00000000000000E+00   0.00000000000000E+00   0.00000000000000E+00
      3.08129429453697E-18   0.00000000000000E+00   0.00000000000000E+00   0.00000000000000E+00   0.00000000000000E+00
      4.65900565110940E-19  -1.68411340252051E-34   4.65900565110940E-19  -1.56108243964369E-17   8.57414822773978E-02
      8.57414820702423E-02   0.00000000000000E+00   0.00000000000000E+00   1.11951879023807E-09   1.09550020854692E-35
      1.11951879023807E-09   6.11269674405046E-18
      1.09699397996974E-01
      0.00000000000000E+00   2.11204540296606E-10   0.00000000000000E+00   0.00000000000000E+00  -1.14188461745501E-09
      1.86655478545467E-34  -1.14188461745501E-09   6.41184150298838E-18   0.00000000000000E+00   0.00000000000000E+00
      0.00000000000000E+00   0.00000000000000E+00   0.00000000000000E+00   0.00000000000000E+00   0.00000000000000E+00
      2.98645581528621E-18   0.00000000000000E+00   0.00000000000000E+00   0.00000000000000E+00   0.00000000000000E+00
      3.37844799057973E-20  -1.95191415966281E-34   3.37844799057971E-20  -1.56131080579549E-17   9.43414822773978E-02
      9.43414820662437E-02   0.00000000000000E+00   0.00000000000000E+00   1.14188461742123E-09   8.53593742081343E-36
      1.14188461742123E-09   6.21481073968041E-18
      1.19699397996974E-01
      0.00000000000000E+00   2.15270420019507E-10   0.00000000000000E+00   0.00000000000000E+00  -1.16445778714104E-09
      2.11743650635719E-34  -1.16445778714104E-09   6.40685028358654E-18   0.00000000000000E+00   0.00000000000000E+00
      0.00000000000000E+00   0.00000000000000E+00   0.00000000000000E+00   0.00000000000000E+00   0.00000000000000E+00
      2.89165504358038E-18   0.00000000000000E+00   0.00000000000000E+00   0.00000000000000E+00   0.00000000000000E+00
     -5.48386140093930E-19  -2.17198066850069E-34  -5.48386140093930E-19  -1.56155294480971E-17   1.02941482277398E-01
      1.02941482062215E-01   0.00000000000000E+00   0.00000000000000E+00   1.16445778768942E-09   5.45441621434951E-36
      1.16445778768942E-09   6.31702412093022E-18
      1.29699397996974E-01
      0.00000000000000E+00   2.19377786469428E-10   0.00000000000000E+00   0.00000000000000E+00  -1.18728115446076E-09
      2.00027487520575E-34  -1.18728115446076E-09   6.40185961501855E-18   0.00000000000000E+00   0.00000000000000E+00
      0.00000000000000E+00   0.00000000000000E+00   0.00000000000000E+00   0.00000000000000E+00   0.00000000000000E+00
      2.79688796374661E-18   0.00000000000000E+00   0.00000000000000E+00   0.00000000000000E+00   0.00000000000000E+00
     -3.78855356143932E-19  -2.04135042380013E-34  -3.78855356143932E-19  -1.56180766827537E-17   1.11541482277398E-01
      1.11541482058151E-01   0.00000000000000E+00   0.00000000000000E+00   1.18728115483961E-09   4.10755485943847E-36
      1.18728115483961E-09   6.41932910398849E-18
      1.39699397996974E-01
      0.00000000000000E+00   2.23535416329456E-10   0.00000000000000E+00   0.00000000000000E+00  -1.21040240909536E-09
      1.91219580517157E-34  -1.21040240909536E-09   6.39686942300326E-18   0.00000000000000E+00   0.00000000000000E+00
      0.00000000000000E+00   0.00000000000000E+00   0.00000000000000E+00   0.00000000000000E+00   0.00000000000000E+00
      2.70215106947336E-18   0.00000000000000E+00   0.00000000000000E+00   0.00000000000000E+00   0.00000000000000E+00
     -6.50564772560773E-19  -1.94049617927921E-34  -6.50564772560773E-19  -1.56207390834679E-17   1.20141482277398E-01
      1.20141482054039E-01   0.00000000000000E+00   0.00000000000000E+00   1.21040240974592E-09   2.83003741076407E-36
      1.21040240974592E-09   6.52171859099126E-18
      1.49699397996974E-01
      0.00000000000000E+00   2.27748755074062E-10   0.00000000000000E+00   0.00000000000000E+00  -1.23385108437029E-09
      1.98912221772792E-34  -1.23385108437029E-09   6.39187964372528E-18   0.00000000000000E+00   0.00000000000000E+00
      0.00000000000000E+00   0.00000000000000E+00   0.00000000000000E+00   0.00000000000000E+00   0.00000000000000E+00
      2.60744132131009E-18   0.00000000000000E+00   0.00000000000000E+00   0.00000000000000E+00   0.00000000000000E+00
     -1.99806877051940E-20  -2.01335356197999E-34  -1.99806877051942E-20  -1.56235070700714E-17   1.28741482277398E-01
      1.28741482049870E-01   0.00000000000000E+00   0.00000000000000E+00   1.23385108439027E-09   2.42313442520736E-36
      1.23385108439027E-09   6.62418610503601E-18
      1.59699397996974E-01
      0.00000000000000E+00   2.32020539217190E-10   0.00000000000000E+00   0.00000000000000E+00  -1.25764192248142E-09
      2.10172397584626E-34  -1.25764192248142E-09   6.38689022113370E-18   0.00000000000000E+00   0.00000000000000E+00
      0.00000000000000E+00   0.00000000000000E+00   0.00000000000000E+00   0.00000000000000E+00   0.00000000000000E+00
      2.51275607696498E-18   0.00000000000000E+00   0.00000000000000E+00   0.00000000000000E+00   0.00000000000000E+00
     -2.25346961902158E-20  -2.11875932679566E-34  -2.25346961902160E-20  -1.56263720246957E-17   1.37341482277398E-01
      1.37341482045638E-01   0.00000000000000E+00   0.00000000000000E+00   1.25764192250395E-09   1.70353509494008E-36
      1.25764192250395E-09   6.72672572659705E-18
      1.69699397996974E-01
      0.00000000000000E+00   2.36351924624857E-10   0.00000000000000E+00   0.00000000000000E+00  -1.28178119331556E-09
      1.81540038453684E-34  -1.28178119331556E-09   6.38190110463217E-18   0.00000000000000E+00   0.00000000000000E+00
      0.00000000000000E+00   0.00000000000000E+00   0.00000000000000E+00   0.00000000000000E+00   0.00000000000000E+00
      2.41809300298506E-18   0.00000000000000E+00   0.00000000000000E+00   0.00000000000000E+00   0.00000000000000E+00
     -2.90103406354256E-19  -1.82908221726162E-34  -2.90103406354256E-19  -1.56293261411950E-17   1.45941482277398E-01
      1.45941482041344E-01   0.00000000000000E+00   0.00000000000000E+00   1.28178119360566E-09   1.36818327247769E-36
      1.28178119360566E-09   6.82933203357773E-18
      1.79699397996974E-01
      0.00000000000000E+00   2.40743201067210E-10   0.00000000000000E+00   0.00000000000000E+00  -1.30627064274133E-09
      2.01685939523614E-34  -1.30627064274133E-09   6.37691224825639E-18   0.00000000000000E+00   0.00000000000000E+00
      0.00000000000000E+00   0.00000000000000E+00   0.00000000000000E+00   0.00000000000000E+00   0.00000000000000E+00
      2.32345001750723E-18   0.00000000000000E+00   0.00000000000000E+00   0.00000000000000E+00   0.00000000000000E+00
      6.56161960492170E-19  -2.02626314247795E-34   6.56161960492170E-19  -1.56323623179048E-17   1.54541482277398E-01
      1.54541482036990E-01   0.00000000000000E+00   0.00000000000000E+00   1.30627064208517E-09   9.40374724180760E-37
      1.30627064208517E-09   6.93200005214120E-18
      1.89699397996974E-01
      0.00000000000000E+00   2.45194314815078E-10   0.00000000000000E+00   0.00000000000000E+00  -1.33111053919213E-09