DF-ISE text

Info {
  version   = 1.0
  type      = xyplot
  datasets  = [
    "time"
    "source OuterVoltage" "source InnerVoltage" "source QuasiFermiPotential" "source DisplacementCurrent" "source eCurrent"
    "source hCurrent" "source TotalCurrent" "source Charge" "gate OuterVoltage" "gate InnerVoltage"
    "gate QuasiFermiPotential" "gate DisplacementCurrent" "gate eCurrent" "gate hCurrent" "gate TotalCurrent"
    "gate Charge" "substrate OuterVoltage" "substrate InnerVoltage" "substrate QuasiFermiPotential" "substrate DisplacementCurrent"
    "substrate eCurrent" "substrate hCurrent" "substrate TotalCurrent" "substrate Charge" "drain OuterVoltage"
    "drain InnerVoltage" "drain QuasiFermiPotential" "drain DisplacementCurrent" "drain eCurrent" "drain hCurrent"
    "drain TotalCurrent" "drain Charge" ]
  functions = [
    Time
    OuterVoltage InnerVoltage QuasiFermiPotential DisplacementCurrent eCurrent
    hCurrent TotalCurrent Charge OuterVoltage InnerVoltage
    QuasiFermiPotential DisplacementCurrent eCurrent hCurrent TotalCurrent
    Charge OuterVoltage InnerVoltage QuasiFermiPotential DisplacementCurrent
    eCurrent hCurrent TotalCurrent Charge OuterVoltage
    InnerVoltage QuasiFermiPotential DisplacementCurrent eCurrent hCurrent
    TotalCurrent Charge ]
}

Data {
      0.00000000000000E+00
      0.00000000000000E+00   0.00000000000000E+00   0.00000000000000E+00   0.00000000000000E+00   2.33683030105338E-21
      6.74452930875350E-34   2.33683030105406E-21   6.05619089802669E-18   0.00000000000000E+00   0.00000000000000E+00
      0.00000000000000E+00   0.00000000000000E+00   0.00000000000000E+00   0.00000000000000E+00   0.00000000000000E+00
      2.34938957470150E-18   0.00000000000000E+00   0.00000000000000E+00   0.00000000000000E+00   0.00000000000000E+00
     -5.79321041250816E-21  -1.18664250744434E-33  -5.79321041250935E-21  -1.45325877632028E-17   0.00000000000000E+00
      0.00000000000000E+00   0.00000000000000E+00   0.00000000000000E+00   3.45638011145478E-21   5.12189576568989E-34
      3.45638011145529E-21   6.12700729047461E-18
      0.00000000000000E+00
      0.00000000000000E+00   4.48023108329399E-19   0.00000000000000E+00   0.00000000000000E+00  -5.17267094457320E-19
      6.54677385773224E-34  -5.17267094457319E-19   6.05130060799267E-18   0.00000000000000E+00   0.00000000000000E+00
      0.00000000000000E+00   0.00000000000000E+00   0.00000000000000E+00   0.00000000000000E+00   0.00000000000000E+00
      2.34237103497955E-18   0.00000000000000E+00   0.00000000000000E+00   0.00000000000000E+00   0.00000000000000E+00
      2.73057922427863E-18  -1.18183995990520E-33   2.73057922427863E-18  -1.45162985305921E-17   0.00000000000000E+00
     -1.34406932498820E-18   0.00000000000000E+00   0.00000000000000E+00  -2.21331212982131E-18   5.27162574131972E-34
     -2.21331212982131E-18   6.12262688761987E-18
      1.00000000000000E-03
      0.00000000000000E+00   1.22503137719751E-12   0.00000000000000E+00   0.00000000000000E+00  -7.02185984196596E-12
      6.66528059479890E-34  -7.02185984196596E-12   6.05124944914023E-18   0.00000000000000E+00   0.00000000000000E+00
      0.00000000000000E+00   0.00000000000000E+00   0.00000000000000E+00   0.00000000000000E+00   0.00000000000000E+00
      2.34172034579228E-18   0.00000000000000E+00   0.00000000000000E+00   0.00000000000000E+00   0.00000000000000E+00
     -4.09260369929697E-20  -1.18925112259850E-33  -4.09260369929708E-20  -1.45162783503104E-17   5.00000000000000E-05
      4.99999987664399E-05   0.00000000000000E+00   0.00000000000000E+00   7.02185988289201E-12   5.22723063118612E-34
      7.02185988289201E-12   6.12330855537782E-18
      2.09333333333333E-03
      0.00000000000000E+00   2.56021326778577E-12   0.00000000000000E+00   0.00000000000000E+00  -1.46750776470155E-11
      6.42523552809441E-34  -1.46750776470155E-11   6.05119351576465E-18   0.00000000000000E+00   0.00000000000000E+00
      0.00000000000000E+00   0.00000000000000E+00   0.00000000000000E+00   0.00000000000000E+00   0.00000000000000E+00
      2.34100893211123E-18   0.00000000000000E+00   0.00000000000000E+00   0.00000000000000E+00   0.00000000000000E+00
     -1.69664120083830E-19  -1.16172056407457E-33  -1.69664120083831E-19  -1.45162563046648E-17   1.04666666666667E-04
      1.04666664088638E-04   0.00000000000000E+00   0.00000000000000E+00   1.46750778166796E-11   5.19197011265134E-34
      1.46750778166796E-11   6.12405385678893E-18
      3.29600000000000E-03
      0.00000000000000E+00   4.02363639685603E-12   0.00000000000000E+00   0.00000000000000E+00  -2.30634219287930E-11
      6.50279672852720E-34  -2.30634219287930E-11   6.05113198941800E-18   0.00000000000000E+00   0.00000000000000E+00
      0.00000000000000E+00   0.00000000000000E+00   0.00000000000000E+00   0.00000000000000E+00   0.00000000000000E+00
      2.34022638489391E-18   0.00000000000000E+00   0.00000000000000E+00   0.00000000000000E+00   0.00000000000000E+00
      6.29643210412075E-19  -1.16526762262962E-33   6.29643210412074E-19  -1.45162320763127E-17   1.64800000000000E-04
      1.64799995948358E-04   0.00000000000000E+00   0.00000000000000E+00   2.30634212991498E-11   5.14987949776896E-34
      2.30634212991498E-11   6.12487370200076E-18
      4.61893333333333E-03
      0.00000000000000E+00   5.62688798605900E-12   0.00000000000000E+00   0.00000000000000E+00  -3.22532266011200E-11
      6.36135274827873E-34  -3.22532266011200E-11   6.05106431088094E-18   0.00000000000000E+00   0.00000000000000E+00
      0.00000000000000E+00   0.00000000000000E+00   0.00000000000000E+00   0.00000000000000E+00   0.00000000000000E+00
      2.33936559242305E-18   0.00000000000000E+00   0.00000000000000E+00   0.00000000000000E+00   0.00000000000000E+00
      4.62365655454390E-19  -1.15545639137689E-33   4.62365655454389E-19  -1.45162054515555E-17   2.30946666666667E-04
      2.30946661000618E-04   0.00000000000000E+00   0.00000000000000E+00   3.22532261387544E-11   5.19321116549021E-34
      3.22532261387544E-11   6.12577554825157E-18
      6.07416000000000E-03
      0.00000000000000E+00   7.38245757558558E-12   0.00000000000000E+00   0.00000000000000E+00  -4.23160765900642E-11
      6.14097744885703E-34  -4.23160765900642E-11   6.05098986502824E-18   0.00000000000000E+00   0.00000000000000E+00
      0.00000000000000E+00   0.00000000000000E+00   0.00000000000000E+00   0.00000000000000E+00   0.00000000000000E+00
      2.33841873215052E-18   0.00000000000000E+00   0.00000000000000E+00   0.00000000000000E+00   0.00000000000000E+00
     -3.37604791964575E-19  -1.10926302301276E-33  -3.37604791964576E-19  -1.45161761962796E-17   3.03708000000000E-04
      3.03707992566167E-04   0.00000000000000E+00   0.00000000000000E+00   4.23160769276690E-11   4.95165278127054E-34
      4.23160769276690E-11   6.12676759910080E-18
      7.67490933333333E-03
      0.00000000000000E+00   9.30377869031593E-12   0.00000000000000E+00   0.00000000000000E+00  -5.33289821628951E-11
      6.05565073616726E-34  -5.33289821628951E-11   6.05090797524171E-18   0.00000000000000E+00   0.00000000000000E+00
      0.00000000000000E+00   0.00000000000000E+00   0.00000000000000E+00   0.00000000000000E+00   0.00000000000000E+00
      2.33737719968498E-18   0.00000000000000E+00   0.00000000000000E+00   0.00000000000000E+00   0.00000000000000E+00
     -8.82901240876128E-19  -1.12313601513737E-33  -8.82901240876130E-19  -1.45161440541122E-17   3.83745466666667E-04
      3.83745457298152E-04   0.00000000000000E+00   0.00000000000000E+00   5.33289830457964E-11   5.17570941520643E-34
      5.33289830457964E-11   6.12785887918552E-18
      9.43573360000000E-03
      0.00000000000000E+00   1.14052525850442E-11   0.00000000000000E+00   0.00000000000000E+00  -6.53745389243473E-11
      6.71638327367693E-34  -6.53745389243473E-11   6.05081789726495E-18   0.00000000000000E+00   0.00000000000000E+00
      0.00000000000000E+00   0.00000000000000E+00   0.00000000000000E+00   0.00000000000000E+00   0.00000000000000E+00
      2.33623153069275E-18   0.00000000000000E+00   0.00000000000000E+00   0.00000000000000E+00   0.00000000000000E+00
     -2.77703966621966E-19  -1.18827981360459E-33  -2.77703966621967E-19  -1.45161087444361E-17   4.71786680000000E-04
      4.71786668515387E-04   0.00000000000000E+00   0.00000000000000E+00   6.53745392020512E-11   5.16641486236893E-34
      6.53745392020512E-11   6.12905931647839E-18
      1.13726402933333E-02
      0.00000000000000E+00   1.37022984230666E-11   0.00000000000000E+00   0.00000000000000E+00  -7.85410403805136E-11
      6.28225458461892E-34  -7.85410403805136E-11   6.05071881244440E-18   0.00000000000000E+00   0.00000000000000E+00
      0.00000000000000E+00   0.00000000000000E+00   0.00000000000000E+00   0.00000000000000E+00   0.00000000000000E+00
      2.33497131500660E-18   0.00000000000000E+00   0.00000000000000E+00   0.00000000000000E+00   0.00000000000000E+00
      1.74333915408140E-19  -1.13750449265722E-33   1.74333915408139E-19  -1.45160699602536E-17   5.68632014666667E-04
      5.68632000869042E-04   0.00000000000000E+00   0.00000000000000E+00   7.85410402061797E-11   5.09279034195328E-34
      7.85410402061797E-11   6.13037983280256E-18
      1.35032376560000E-02
      0.00000000000000E+00   1.62113290829337E-11   0.00000000000000E+00   0.00000000000000E+00  -9.29225242894531E-11
      6.11167210832875E-34  -9.29225242894531E-11   6.05060982029573E-18   0.00000000000000E+00   0.00000000000000E+00
      0.00000000000000E+00   0.00000000000000E+00   0.00000000000000E+00   0.00000000000000E+00   0.00000000000000E+00
      2.33358510216617E-18   0.00000000000000E+00   0.00000000000000E+00   0.00000000000000E+00   0.00000000000000E+00
     -2.57880660063811E-19  -1.13117528502601E-33  -2.57880660063812E-19  -1.45160273658977E-17   6.75161882800000E-04
      6.75161866475907E-04   0.00000000000000E+00   0.00000000000000E+00   9.29225245473338E-11   5.20008074193139E-34
      9.29225245473338E-11   6.13183244343573E-18
      1.58468947549333E-02
      0.00000000000000E+00   1.89497430940344E-11   0.00000000000000E+00   0.00000000000000E+00  -1.08618730972330E-10
      6.30577351114464E-34  -1.08618730972330E-10   6.05048993032767E-18   0.00000000000000E+00   0.00000000000000E+00
      0.00000000000000E+00   0.00000000000000E+00   0.00000000000000E+00   0.00000000000000E+00   0.00000000000000E+00
      2.33206029753707E-18   0.00000000000000E+00   0.00000000000000E+00   0.00000000000000E+00   0.00000000000000E+00
     -2.45680085928304E-20  -1.12046558267647E-33  -2.45680085928315E-20  -1.45159805945840E-17   7.92344737746667E-04
      7.92344718665125E-04   0.00000000000000E+00   0.00000000000000E+00   1.08618730996898E-10   4.89888231562003E-34
      1.08618730996898E-10   6.13343036671923E-18
      1.84249175637600E-02
      0.00000000000000E+00   2.19358995473018E-11   0.00000000000000E+00   0.00000000000000E+00  -1.25734935983753E-10
      6.34252414963431E-34  -1.25734935983753E-10   6.05035805305005E-18   0.00000000000000E+00   0.00000000000000E+00
      0.00000000000000E+00   0.00000000000000E+00   0.00000000000000E+00   0.00000000000000E+00   0.00000000000000E+00
      2.33038304807398E-18   0.00000000000000E+00   0.00000000000000E+00   0.00000000000000E+00   0.00000000000000E+00
      6.01430591379195E-19  -1.13301632577755E-33   6.01430591379194E-19  -1.45159292458072E-17   9.21245878188001E-04
      9.21245856099557E-04   0.00000000000000E+00   0.00000000000000E+00   1.25734935382323E-10   4.98763910814123E-34
      1.25734935382323E-10   6.13518814468321E-18
      2.12607426534693E-02
      0.00000000000000E+00   2.51890952460347E-11   0.00000000000000E+00   0.00000000000000E+00  -1.44381639865061E-10
      6.13893125041882E-34  -1.44381639865061E-10   6.05021299008419E-18   0.00000000000000E+00   0.00000000000000E+00
      0.00000000000000E+00   0.00000000000000E+00   0.00000000000000E+00   0.00000000000000E+00   0.00000000000000E+00
      2.32853811669546E-18   0.00000000000000E+00   0.00000000000000E+00   0.00000000000000E+00   0.00000000000000E+00
      1.17206090357005E-19  -1.13216517934046E-33   1.17206090357004E-19  -1.45158728825793E-17   1.06303713267347E-03
      1.06303710730923E-03   0.00000000000000E+00   0.00000000000000E+00   1.44381639747855E-10   5.18272054298573E-34
      1.44381639747855E-10   6.13712177579962E-18
      2.43801502521496E-02
      0.00000000000000E+00   2.87294428436123E-11   0.00000000000000E+00   0.00000000000000E+00  -1.64674070137989E-10
      6.33991741569538E-34  -1.64674070137989E-10   6.05005342328649E-18   0.00000000000000E+00   0.00000000000000E+00
      0.00000000000000E+00   0.00000000000000E+00   0.00000000000000E+00   0.00000000000000E+00   0.00000000000000E+00
      2.32650874414051E-18   0.00000000000000E+00   0.00000000000000E+00   0.00000000000000E+00   0.00000000000000E+00
      5.13653094672960E-19  -1.15376384636114E-33   5.13653094672959E-19  -1.45158110285160E-17   1.21900751260748E-03
      1.21900748367831E-03   0.00000000000000E+00   0.00000000000000E+00   1.64674069624336E-10   5.19772104791602E-34
      1.64674069624336E-10   6.13924886108893E-18
      2.78114986106979E-02
      0.00000000000000E+00   3.25777462930698E-11   0.00000000000000E+00   0.00000000000000E+00  -1.86731465543274E-10
      6.39273003516628E-34  -1.86731465543274E-10   6.04987790278688E-18   0.00000000000000E+00   0.00000000000000E+00
      0.00000000000000E+00   0.00000000000000E+00   0.00000000000000E+00   0.00000000000000E+00   0.00000000000000E+00
      2.32427649706246E-18   0.00000000000000E+00   0.00000000000000E+00   0.00000000000000E+00   0.00000000000000E+00
      7.54368472691033E-19  -1.11900387995385E-33   7.54368472691032E-19  -1.45157431647825E-17   1.39057493053490E-03
      1.39057489773070E-03   0.00000000000000E+00   0.00000000000000E+00   1.86731464788905E-10   4.79730876437224E-34
      1.86731464788905E-10   6.14158876493311E-18
      3.15859818051010E-02
      0.00000000000000E+00   3.67553431429646E-11   0.00000000000000E+00   0.00000000000000E+00  -2.10676087758672E-10
      6.21801646268200E-34  -2.10676087758672E-10   6.04968483383407E-18   0.00000000000000E+00   0.00000000000000E+00
      0.00000000000000E+00   0.00000000000000E+00   0.00000000000000E+00   0.00000000000000E+00   0.00000000000000E+00
      2.32182110099552E-18   0.00000000000000E+00   0.00000000000000E+00   0.00000000000000E+00   0.00000000000000E+00
      2.08800993882038E-18  -1.08881867729577E-33   2.08800993882038E-18  -1.45156687269131E-17   1.57929909025505E-03
      1.57929905324426E-03   0.00000000000000E+00   0.00000000000000E+00   2.10676085670662E-10   4.67017031027571E-34
      2.10676085670662E-10   6.14416279208354E-18
      3.57379133189445E-02
      0.00000000000000E+00   4.12838872461684E-11   0.00000000000000E+00   0.00000000000000E+00  -2.36631901910648E-10
      6.44341998047012E-34  -2.36631901910648E-10   6.04947246232900E-18   0.00000000000000E+00   0.00000000000000E+00
      0.00000000000000E+00   0.00000000000000E+00   0.00000000000000E+00   0.00000000000000E+00   0.00000000000000E+00
      2.31912025669438E-18   0.00000000000000E+00   0.00000000000000E+00   0.00000000000000E+00   0.00000000000000E+00
      2.49775926639651E-18  -1.11586390287084E-33   2.49775926639651E-18  -1.45155871015303E-17   1.78689566594722E-03
      1.78689562437647E-03   0.00000000000000E+00   0.00000000000000E+00   2.36631899412889E-10   4.71521904823825E-34
      2.36631899412889E-10   6.14699438250685E-18
      4.03050379841723E-02
      0.00000000000000E+00   4.61850113984669E-11   0.00000000000000E+00   0.00000000000000E+00  -2.64722867486662E-10
      6.21245976548117E-34  -2.64722867486662E-10   6.04923885891614E-18   0.00000000000000E+00   0.00000000000000E+00
      0.00000000000000E+00   0.00000000000000E+00   0.00000000000000E+00   0.00000000000000E+00   0.00000000000000E+00
      2.31614943820530E-18   0.00000000000000E+00   0.00000000000000E+00   0.00000000000000E+00   0.00000000000000E+00
      1.69386708461176E-17  -1.09543701098565E-33   1.69386708461176E-17  -1.45154976230040E-17   2.01525189920861E-03
      2.01525185270275E-03   0.00000000000000E+00   0.00000000000000E+00   2.64722850547991E-10   4.74191034437531E-34
      2.64722850547991E-10   6.15010932588253E-18
      4.53288751159228E-02
      0.00000000000000E+00   5.14799796726276E-11   0.00000000000000E+00   0.00000000000000E+00  -2.95070806026649E-10
      6.49846622993624E-34  -2.95070806026649E-10   6.04898190148814E-18   0.00000000000000E+00   0.00000000000000E+00
      0.00000000000000E+00   0.00000000000000E+00   0.00000000000000E+00   0.00000000000000E+00   0.00000000000000E+00
      2.31288167082593E-18   0.00000000000000E+00   0.00000000000000E+00   0.00000000000000E+00   0.00000000000000E+00
      6.21380689367677E-18  -1.11707826833559E-33   6.21380689367677E-18  -1.45153995700536E-17   2.26644375579614E-03
      2.26644370395859E-03   0.00000000000000E+00   0.00000000000000E+00   2.95070799812842E-10   4.67231645341971E-34
      2.95070799812842E-10   6.15353599773949E-18
      5.08550959608485E-02
      0.00000000000000E+00   5.71892734450479E-11   0.00000000000000E+00   0.00000000000000E+00  -3.27792923135387E-10
      5.96823129704993E-34  -3.27792923135387E-10   6.04869925594747E-18   0.00000000000000E+00   0.00000000000000E+00
      0.00000000000000E+00   0.00000000000000E+00   0.00000000000000E+00   0.00000000000000E+00   0.00000000000000E+00
      2.30928728700094E-18   0.00000000000000E+00   0.00000000000000E+00   0.00000000000000E+00   0.00000000000000E+00
      8.44808472083042E-18  -1.05048854253442E-33   8.44808472083042E-18  -1.45152921623938E-17   2.54275479804242E-03
      2.54275474045601E-03   0.00000000000000E+00   0.00000000000000E+00   3.27792914687302E-10   4.53665412829425E-34
      3.27792914687302E-10   6.15730561944539E-18
      5.69339388902666E-02
      0.00000000000000E+00   6.33319538588715E-11   0.00000000000000E+00   0.00000000000000E+00  -3.62998397496936E-10
      6.34868496019253E-34  -3.62998397496936E-10   6.04838835505216E-18   0.00000000000000E+00   0.00000000000000E+00
      0.00000000000000E+00   0.00000000000000E+00   0.00000000000000E+00   0.00000000000000E+00   0.00000000000000E+00
      2.30533365798638E-18   0.00000000000000E+00   0.00000000000000E+00   0.00000000000000E+00   0.00000000000000E+00
      1.24212830973729E-17  -1.07421094334300E-33   1.24212830973729E-17  -1.45151745575261E-17   2.84669694451333E-03
      2.84669688074168E-03   0.00000000000000E+00   0.00000000000000E+00   3.62998385075653E-10   4.39342447323742E-34
      3.62998385075653E-10   6.16145254448758E-18
      6.36206661126266E-02
      0.00000000000000E+00   6.99250525125617E-11   0.00000000000000E+00   0.00000000000000E+00  -4.00784674366581E-10
      6.22256778945656E-34  -4.00784674366581E-10   6.04804637515388E-18   0.00000000000000E+00   0.00000000000000E+00
      0.00000000000000E+00   0.00000000000000E+00   0.00000000000000E+00   0.00000000000000E+00   0.00000000000000E+00
      2.30098489882876E-18   0.00000000000000E+00   0.00000000000000E+00   0.00000000000000E+00   0.00000000000000E+00
      1.95559147241229E-17  -1.10428211656178E-33   1.95559147241229E-17  -1.45150458476941E-17   3.18103330563133E-03
      3.18103323522093E-03   0.00000000000000E+00   0.00000000000000E+00   4.00784654810665E-10   4.82025337616123E-34
      4.00784654810665E-10   6.16601457371142E-18
      7.09760660572226E-02
      0.00000000000000E+00   7.69827833872532E-11   0.00000000000000E+00   0.00000000000000E+00  -4.41233055652946E-10
      6.38845851379284E-34  -4.41233055652946E-10   6.04767021061893E-18   0.00000000000000E+00   0.00000000000000E+00
      0.00000000000000E+00   0.00000000000000E+00   0.00000000000000E+00   0.00000000000000E+00   0.00000000000000E+00
      2.29620154403966E-18   0.00000000000000E+00   0.00000000000000E+00   0.00000000000000E+00   0.00000000000000E+00
      2.74713285930809E-17  -1.08178312410530E-33   2.74713285930809E-17  -1.45149050571348E-17   3.54880330286113E-03
      3.54880322534415E-03   0.00000000000000E+00   0.00000000000000E+00   4.41233028181617E-10   4.42937272726021E-34
      4.41233028181617E-10   6.17103330247618E-18
      7.90670059962782E-02
      0.00000000000000E+00   8.45156302236810E-11   0.00000000000000E+00   0.00000000000000E+00  -4.84403441209882E-10
      6.58021984623117E-34  -4.84403441209882E-10   6.04725644570486E-18   0.00000000000000E+00   0.00000000000000E+00
      0.00000000000000E+00   0.00000000000000E+00   0.00000000000000E+00   0.00000000000000E+00   0.00000000000000E+00
      2.29094019114105E-18   0.00000000000000E+00   0.00000000000000E+00   0.00000000000000E+00   0.00000000000000E+00
      4.16727999538133E-17  -1.11602534557047E-33   4.16727999538133E-17  -1.45147511398765E-17   3.95335029981391E-03
      3.95335021471197E-03   0.00000000000000E+00   0.00000000000000E+00   4.84403399537082E-10   4.58003360947350E-34
      4.84403399537082E-10   6.17655450303066E-18
      8.79670399292394E-02
      0.00000000000000E+00   9.25293102447306E-11   0.00000000000000E+00   0.00000000000000E+00  -5.30328472126656E-10
      6.64165591947867E-34  -5.30328472126656E-10   6.04680132363804E-18   0.00000000000000E+00   0.00000000000000E+00
      0.00000000000000E+00   0.00000000000000E+00   0.00000000000000E+00   0.00000000000000E+00   0.00000000000000E+00
      2.28515310883119E-18   0.00000000000000E+00   0.00000000000000E+00   0.00000000000000E+00   0.00000000000000E+00
      6.08100261987682E-17  -1.12319011472929E-33   6.08100261987682E-17  -1.45145829781564E-17   4.39835199646197E-03
      4.39835190329094E-03   0.00000000000000E+00   0.00000000000000E+00   5.30328411316630E-10   4.59024522781422E-34
      5.30328411316630E-10   6.18262854568721E-18
      9.77570772554967E-02
      0.00000000000000E+00   1.01023665298245E-10   0.00000000000000E+00   0.00000000000000E+00  -5.79007012404427E-10
      6.62745447390885E-34  -5.79007012404427E-10   6.04630071261445E-18   0.00000000000000E+00   0.00000000000000E+00
      0.00000000000000E+00   0.00000000000000E+00   0.00000000000000E+00   0.00000000000000E+00   0.00000000000000E+00
      2.27878780631318E-18   0.00000000000000E+00   0.00000000000000E+00   0.00000000000000E+00   0.00000000000000E+00
      8.83221612046592E-17  -1.10952405894867E-33   8.83221612046592E-17  -1.45143993817195E-17   4.88785386277484E-03
      4.88785376105077E-03   0.00000000000000E+00   0.00000000000000E+00   5.79006924082266E-10   4.46778611557780E-34
      5.79006924082266E-10   6.18931086279184E-18
      1.07757077255497E-01
      0.00000000000000E+00   1.09363776748115E-10   0.00000000000000E+00   0.00000000000000E+00  -6.26800565106860E-10
      6.49166090289688E-34  -6.26800565106860E-10   6.04578939017418E-18   0.00000000000000E+00   0.00000000000000E+00
      0.00000000000000E+00   0.00000000000000E+00   0.00000000000000E+00   0.00000000000000E+00   0.00000000000000E+00
      2.27228651416584E-18   0.00000000000000E+00   0.00000000000000E+00   0.00000000000000E+00   0.00000000000000E+00
      1.05695513947223E-16  -1.07225011933107E-33   1.05695513947223E-16  -1.45142133341102E-17   5.38785386277483E-03
      5.38785375265307E-03   0.00000000000000E+00   0.00000000000000E+00   6.26800459411346E-10   4.23084029041385E-34
      6.26800459411346E-10   6.19613742977013E-18
      1.17757077255497E-01
      0.00000000000000E+00   1.17374835385958E-10   0.00000000000000E+00   0.00000000000000E+00  -6.72707418997618E-10
      6.49048077817050E-34  -6.72707418997618E-10   6.04527809278473E-18   0.00000000000000E+00   0.00000000000000E+00
      0.00000000000000E+00   0.00000000000000E+00   0.00000000000000E+00   0.00000000000000E+00   0.00000000000000E+00
      2.26578574812015E-18   0.00000000000000E+00   0.00000000000000E+00   0.00000000000000E+00   0.00000000000000E+00
      1.28384732188775E-16  -1.06352286789261E-33   1.28384732188775E-16  -1.45140287805212E-17   5.88785386277483E-03
      5.88785374458674E-03   0.00000000000000E+00   0.00000000000000E+00   6.72707290612886E-10   4.14474790075562E-34
      6.72707290612886E-10   6.20296493961641E-18
      1.27757077255497E-01
      0.00000000000000E+00   1.25067726829236E-10   0.00000000000000E+00   0.00000000000000E+00  -7.16790170358130E-10
      6.40314393756436E-34  -7.16790170358130E-10   6.04476682025917E-18   0.00000000000000E+00   0.00000000000000E+00
      0.00000000000000E+00   0.00000000000000E+00   0.00000000000000E+00   0.00000000000000E+00   0.00000000000000E+00
      2.25928550446533E-18   0.00000000000000E+00   0.00000000000000E+00   0.00000000000000E+00   0.00000000000000E+00
      1.05762313483355E-16  -1.05034977547648E-33   1.05762313483355E-16  -1.45138457128484E-17   6.38785386277483E-03
      6.38785373684079E-03   0.00000000000000E+00   0.00000000000000E+00   7.16790064595816E-10   4.10035381720049E-34
      7.16790064595816E-10   6.20979338812388E-18
      1.37757077255497E-01
      0.00000000000000E+00   1.32453226929750E-10   0.00000000000000E+00   0.00000000000000E+00  -7.59110732429261E-10
      6.39358024260443E-34  -7.59110732429261E-10   6.04425557240983E-18   0.00000000000000E+00   0.00000000000000E+00
      0.00000000000000E+00   0.00000000000000E+00   0.00000000000000E+00   0.00000000000000E+00   0.00000000000000E+00
      2.25278577951099E-18   0.00000000000000E+00   0.00000000000000E+00   0.00000000000000E+00   0.00000000000000E+00
      1.37513734621661E-16  -1.04742202734559E-33   1.37513734621661E-16  -1.45136641230277E-17   6.88785386277483E-03
      6.88785372940439E-03   0.00000000000000E+00   0.00000000000000E+00   7.59110594915527E-10   4.08064003085140E-34
      7.59110594915527E-10   6.21662277110681E-18
      1.47757077255497E-01
      0.00000000000000E+00   1.39541917097273E-10   0.00000000000000E+00   0.00000000000000E+00  -7.99729827804940E-10
      6.21003645371847E-34  -7.99729827804940E-10   6.04374434904896E-18   0.00000000000000E+00   0.00000000000000E+00
      0.00000000000000E+00   0.00000000000000E+00   0.00000000000000E+00   0.00000000000000E+00   0.00000000000000E+00
      2.24628656959287E-18   0.00000000000000E+00   0.00000000000000E+00   0.00000000000000E+00   0.00000000000000E+00
      1.00424061254835E-16  -1.02361876633627E-33   1.00424061254835E-16  -1.45134840030460E-17   7.38785386277483E-03
      7.38785372226688E-03   0.00000000000000E+00   0.00000000000000E+00   7.99729727380879E-10   4.02615120964421E-34
      7.99729727380879E-10   6.22345308440417E-18
      1.57757077255497E-01
      0.00000000000000E+00   1.46344160106301E-10   0.00000000000000E+00   0.00000000000000E+00  -8.38707094993821E-10
      6.54985142865866E-34  -8.38707094993821E-10   6.04323314999067E-18   0.00000000000000E+00   0.00000000000000E+00
      0.00000000000000E+00   0.00000000000000E+00   0.00000000000000E+00   0.00000000000000E+00   0.00000000000000E+00
      2.23978787111293E-18   0.00000000000000E+00   0.00000000000000E+00   0.00000000000000E+00   0.00000000000000E+00
      9.98526675680225E-17  -1.04659533339826E-33   9.98526675680225E-17  -1.45133053450007E-17   7.88785386277484E-03
      7.88785371541781E-03   0.00000000000000E+00   0.00000000000000E+00   8.38706995141154E-10   3.91610190532389E-34
      8.38706995141154E-10   6.23028432389704E-18
      1.67757077255497E-01
      0.00000000000000E+00   1.52869993914576E-10   0.00000000000000E+00   0.00000000000000E+00  -8.76100847304121E-10
      6.03736995960108E-34  -8.76100847304121E-10   6.04272197504711E-18   0.00000000000000E+00   0.00000000000000E+00
      0.00000000000000E+00   0.00000000000000E+00   0.00000000000000E+00   0.00000000000000E+00   0.00000000000000E+00
      2.23328968046268E-18   0.00000000000000E+00   0.00000000000000E+00   0.00000000000000E+00   0.00000000000000E+00
      8.47622868576514E-17  -9.95539160847092E-34   8.47622868576514E-17  -1.45131281409772E-17   8.38785386277484E-03
      8.38785370884694E-03   0.00000000000000E+00   0.00000000000000E+00   8.76100762541834E-10   3.91802164886984E-34
      8.76100762541834E-10   6.23711648546744E-18
      1.77757077255497E-01
      0.00000000000000E+00   1.59129598951189E-10   0.00000000000000E+00   0.00000000000000E+00  -9.11968138541040E-10
      6.13510201221841E-34  -9.11968138541040E-10   6.04221082403234E-18   0.00000000000000E+00   0.00000000000000E+00
      0.00000000000000E+00   0.00000000000000E+00   0.00000000000000E+00   0.00000000000000E+00   0.00000000000000E+00
      2.22679199404548E-18   0.00000000000000E+00   0.00000000000000E+00   0.00000000000000E+00   0.00000000000000E+00
      8.45256637426929E-17  -9.64512506515014E-34   8.45256637426929E-17  -1.45129523831025E-17   8.88785386277484E-03
      8.88785370254432E-03   0.00000000000000E+00   0.00000000000000E+00   9.11968054015377E-10   3.51002305293173E-34
      9.11968054015377E-10   6.24394956502467E-18
      1.87757077255497E-01
      0.00000000000000E+00   1.65132522140554E-10   0.00000000000000E+00   0.00000000000000E+00  -9.46364553221835E-10
      6.36695910798327E-34  -9.46364553221835E-10   6.04169969675972E-18   0.00000000000000E+00   0.00000000000000E+00
      0.00000000000000E+00   0.00000000000000E+00   0.00000000000000E+00   0.00000000000000E+00   0.00000000000000E+00
      2.22029480830754E-18   0.00000000000000E+00   0.00000000000000E+00   0.00000000000000E+00   0.00000000000000E+00
      8.34039855817762E-17  -1.00173070519049E-33   8.34039855817762E-17  -1.45127780635693E-17   9.38785386277484E-03
      9.38785369650015E-03   0.00000000000000E+00   0.00000000000000E+00   9.46364469817850E-10   3.65034794392165E-34
      9.46364469817850E-10   6.25078355850196E-18
      1.97757077255497E-01
      0.00000000000000E+00   1.70888190336894E-10   0.00000000000000E+00   0.00000000000000E+00  -9.79344226326766E-10