DF-ISE text

Info {
  version   = 1.0
  type      = xyplot
  datasets  = [
    "time"
    "source OuterVoltage" "source InnerVoltage" "source QuasiFermiPotential" "source DisplacementCurrent" "source eCurrent"
    "source hCurrent" "source TotalCurrent" "source Charge" "gate OuterVoltage" "gate InnerVoltage"
    "gate QuasiFermiPotential" "gate DisplacementCurrent" "gate eCurrent" "gate hCurrent" "gate TotalCurrent"
    "gate Charge" "substrate OuterVoltage" "substrate InnerVoltage" "substrate QuasiFermiPotential" "substrate DisplacementCurrent"
    "substrate eCurrent" "substrate hCurrent" "substrate TotalCurrent" "substrate Charge" "drain OuterVoltage"
    "drain InnerVoltage" "drain QuasiFermiPotential" "drain DisplacementCurrent" "drain eCurrent" "drain hCurrent"
    "drain TotalCurrent" "drain Charge" ]
  functions = [
    Time
    OuterVoltage InnerVoltage QuasiFermiPotential DisplacementCurrent eCurrent
    hCurrent TotalCurrent Charge OuterVoltage InnerVoltage
    QuasiFermiPotential DisplacementCurrent eCurrent hCurrent TotalCurrent
    Charge OuterVoltage InnerVoltage QuasiFermiPotential DisplacementCurrent
    eCurrent hCurrent TotalCurrent Charge OuterVoltage
    InnerVoltage QuasiFermiPotential DisplacementCurrent eCurrent hCurrent
    TotalCurrent Charge ]
}

Data {
      0.00000000000000E+00
      0.00000000000000E+00   0.00000000000000E+00   0.00000000000000E+00   0.00000000000000E+00  -2.22255625378103E-21
      1.00036201960295E-34  -2.22255625378093E-21   5.59931679176517E-18   0.00000000000000E+00   0.00000000000000E+00
      0.00000000000000E+00   0.00000000000000E+00   0.00000000000000E+00   0.00000000000000E+00   0.00000000000000E+00
      1.94719362217478E-18   0.00000000000000E+00   0.00000000000000E+00   0.00000000000000E+00   0.00000000000000E+00
      3.04777841381436E-20  -1.32947011130816E-34   3.04777841381435E-20  -1.30995761141319E-17   0.00000000000000E+00
      0.00000000000000E+00   0.00000000000000E+00   0.00000000000000E+00  -2.82552278843627E-20   3.29108091705216E-35
     -2.82552278843626E-20   5.55306570019200E-18
      0.00000000000000E+00
      0.00000000000000E+00   0.00000000000000E+00   0.00000000000000E+00   0.00000000000000E+00  -3.55959277450468E-19
      9.01580952554451E-35  -3.55959277450468E-19   5.59506654193143E-18   0.00000000000000E+00   0.00000000000000E+00
      0.00000000000000E+00   0.00000000000000E+00   0.00000000000000E+00   0.00000000000000E+00   0.00000000000000E+00
      1.94025890635088E-18   0.00000000000000E+00   0.00000000000000E+00   0.00000000000000E+00   0.00000000000000E+00
      1.11793767221151E-18  -1.19137905522077E-34   1.11793767221151E-18  -1.30846340390923E-17   0.00000000000000E+00
     -9.27724618257846E-19   0.00000000000000E+00   0.00000000000000E+00  -7.61978394761047E-19   2.89798102666315E-35
     -7.61978394761047E-19   5.54930859080993E-18
      1.00000000000000E-03
      0.00000000000000E+00   2.24389820301336E-12   0.00000000000000E+00   0.00000000000000E+00  -1.22321326858156E-11
      7.83985249547246E-35  -1.22321326858156E-11   5.59502257816869E-18   0.00000000000000E+00   0.00000000000000E+00
      0.00000000000000E+00   0.00000000000000E+00   0.00000000000000E+00   0.00000000000000E+00   0.00000000000000E+00
      1.93959219848479E-18   0.00000000000000E+00   0.00000000000000E+00   0.00000000000000E+00   0.00000000000000E+00
     -5.97511882087708E-19  -1.06434637287239E-34  -5.97511882087708E-19  -1.30846062497451E-17   5.00000000000000E-05
      4.99999977426259E-05   0.00000000000000E+00   0.00000000000000E+00   1.22321332833274E-11   2.80361123325139E-35
      1.22321332833274E-11   5.54999147309159E-18
      2.09333333333333E-03
      0.00000000000000E+00   4.68947214147825E-12   0.00000000000000E+00   0.00000000000000E+00  -2.55636910155221E-11
      1.03320411132673E-34  -2.55636910155221E-11   5.59497451151601E-18   0.00000000000000E+00   0.00000000000000E+00
      0.00000000000000E+00   0.00000000000000E+00   0.00000000000000E+00   0.00000000000000E+00   0.00000000000000E+00
      1.93886327341937E-18   0.00000000000000E+00   0.00000000000000E+00   0.00000000000000E+00   0.00000000000000E+00
      6.49898900187443E-20  -1.37469592576190E-34   6.49898900187442E-20  -1.30845758895262E-17   1.04666666666667E-04
      1.04666661949018E-04   0.00000000000000E+00   0.00000000000000E+00   2.55636909505322E-11   3.41491814435173E-35
      2.55636909505322E-11   5.55073810459083E-18
      3.29600000000000E-03
      0.00000000000000E+00   7.36986570510655E-12   0.00000000000000E+00   0.00000000000000E+00  -4.01752913598461E-11
      9.11426014621428E-35  -4.01752913598461E-11   5.59492163867581E-18   0.00000000000000E+00   0.00000000000000E+00
      0.00000000000000E+00   0.00000000000000E+00   0.00000000000000E+00   0.00000000000000E+00   0.00000000000000E+00
      1.93806146653746E-18   0.00000000000000E+00   0.00000000000000E+00   0.00000000000000E+00   0.00000000000000E+00
     -2.29368498982426E-19  -1.17043409927532E-34  -2.29368498982426E-19  -1.30845425207752E-17   1.64800000000000E-04
      1.64799992585869E-04   0.00000000000000E+00   0.00000000000000E+00   4.01752915892146E-11   2.59008084653891E-35
      4.01752915892146E-11   5.55155941556189E-18
      4.61893333333333E-03
      0.00000000000000E+00   1.03062449310638E-11   0.00000000000000E+00   0.00000000000000E+00  -5.61823075371245E-11
      5.35218969930262E-35  -5.61823075371245E-11   5.59486347913090E-18   0.00000000000000E+00   0.00000000000000E+00
      0.00000000000000E+00   0.00000000000000E+00   0.00000000000000E+00   0.00000000000000E+00   0.00000000000000E+00
      1.93717949189038E-18   0.00000000000000E+00   0.00000000000000E+00   0.00000000000000E+00   0.00000000000000E+00
     -6.45043420204268E-20  -8.57820976372689E-35  -6.45043420204269E-20  -1.30845058483876E-17   2.30946666666667E-04
      2.30946656298526E-04   0.00000000000000E+00   0.00000000000000E+00   5.61823076016288E-11   3.22602006442427E-35
      5.61823076016288E-11   5.55246287736624E-18
      6.07416000000000E-03
      0.00000000000000E+00   1.35214388028938E-11   0.00000000000000E+00   0.00000000000000E+00  -7.37092195999884E-11
      1.39746613503393E-34  -7.37092195999884E-11   5.59479950433346E-18   0.00000000000000E+00   0.00000000000000E+00
      0.00000000000000E+00   0.00000000000000E+00   0.00000000000000E+00   0.00000000000000E+00   0.00000000000000E+00
      1.93620933539968E-18   0.00000000000000E+00   0.00000000000000E+00   0.00000000000000E+00   0.00000000000000E+00
     -2.05710835335155E-19  -1.54377718450815E-34  -2.05710835335155E-19  -1.30844655489481E-17   3.03708000000000E-04
      3.03707986397366E-04   0.00000000000000E+00   0.00000000000000E+00   7.37092198056992E-11   1.46311049474222E-35
      7.37092198056992E-11   5.55345670921494E-18
      7.67490933333333E-03
      0.00000000000000E+00   1.70400208902850E-11   0.00000000000000E+00   0.00000000000000E+00  -9.28899089512233E-11
      4.76410161311602E-35  -9.28899089512233E-11   5.59472913290629E-18   0.00000000000000E+00   0.00000000000000E+00
      0.00000000000000E+00   0.00000000000000E+00   0.00000000000000E+00   0.00000000000000E+00   0.00000000000000E+00
      1.93514218214025E-18   0.00000000000000E+00   0.00000000000000E+00   0.00000000000000E+00   0.00000000000000E+00
     -2.19980059649696E-19  -6.47459733169695E-35  -2.19980059649696E-19  -1.30844212681485E-17   3.83745466666667E-04
      3.83745449524332E-04   0.00000000000000E+00   0.00000000000000E+00   9.28899091712034E-11   1.71049571858094E-35
      9.28899091712034E-11   5.55454995310191E-18
      9.43573360000000E-03
      0.00000000000000E+00   2.08883144515557E-11   0.00000000000000E+00   0.00000000000000E+00  -1.13867923415266E-10
      9.16876654882612E-35  -1.13867923415266E-10   5.59465172536542E-18   0.00000000000000E+00   0.00000000000000E+00
      0.00000000000000E+00   0.00000000000000E+00   0.00000000000000E+00   0.00000000000000E+00   0.00000000000000E+00
      1.93396833637222E-18   0.00000000000000E+00   0.00000000000000E+00   0.00000000000000E+00   0.00000000000000E+00
     -9.95697091197945E-20  -1.16870848287133E-34  -9.95697091197946E-20  -1.30843726179995E-17   4.71786680000000E-04
      4.71786658986283E-04   0.00000000000000E+00   0.00000000000000E+00   1.13867923514835E-10   2.51831827988718E-35
      1.13867923514835E-10   5.55575255626179E-18
      1.13726402933333E-02
      0.00000000000000E+00   2.50944745372833E-11   0.00000000000000E+00   0.00000000000000E+00  -1.36796663568420E-10
      9.59112404047788E-35  -1.36796663568420E-10   5.59456657831575E-18   0.00000000000000E+00   0.00000000000000E+00
      0.00000000000000E+00   0.00000000000000E+00   0.00000000000000E+00   0.00000000000000E+00   0.00000000000000E+00
      1.93267713359932E-18   0.00000000000000E+00   0.00000000000000E+00   0.00000000000000E+00   0.00000000000000E+00
     -1.26839570013409E-19  -1.33387130946574E-34  -1.26839570013409E-19  -1.30843191738253E-17   5.68632014666667E-04
      5.68631989421561E-04   0.00000000000000E+00   0.00000000000000E+00   1.36796663695259E-10   3.74758905417948E-35
      1.36796663695259E-10   5.55707546191020E-18
      1.35032376560000E-02
      0.00000000000000E+00   2.96884689719489E-11   0.00000000000000E+00   0.00000000000000E+00  -1.61839448641659E-10
      8.78526728767027E-35  -1.61839448641659E-10   5.59447291806773E-18   0.00000000000000E+00   0.00000000000000E+00
      0.00000000000000E+00   0.00000000000000E+00   0.00000000000000E+00   0.00000000000000E+00   0.00000000000000E+00
      1.93125684386186E-18   0.00000000000000E+00   0.00000000000000E+00   0.00000000000000E+00   0.00000000000000E+00
     -1.72328153392059E-19  -1.29309341928745E-34  -1.72328153392059E-19  -1.30842604710326E-17   6.75161882800000E-04
      6.75161852933351E-04   0.00000000000000E+00   0.00000000000000E+00   1.61839448813987E-10   4.14566690520423E-35
      1.61839448813987E-10   5.55853070910304E-18
      1.58468947549333E-02
      0.00000000000000E+00   3.47020676851048E-11   0.00000000000000E+00   0.00000000000000E+00  -1.89169418106233E-10
      9.37407577059667E-35  -1.89169418106233E-10   5.59436989361722E-18   0.00000000000000E+00   0.00000000000000E+00
      0.00000000000000E+00   0.00000000000000E+00   0.00000000000000E+00   0.00000000000000E+00   0.00000000000000E+00
      1.92969456539367E-18   0.00000000000000E+00   0.00000000000000E+00   0.00000000000000E+00   0.00000000000000E+00
      3.78442764457446E-19  -1.27385964395088E-34   3.78442764457446E-19  -1.30841960016465E-17   7.92344737746667E-04
      7.92344702836361E-04   0.00000000000000E+00   0.00000000000000E+00   1.89169417727791E-10   3.36452066891209E-35
      1.89169417727791E-10   5.56013154263559E-18
      1.84249175637600E-02
      0.00000000000000E+00   4.01687712765787E-11   0.00000000000000E+00   0.00000000000000E+00  -2.18969229004356E-10
      8.34622261165182E-35  -2.18969229004356E-10   5.59425656892533E-18   0.00000000000000E+00   0.00000000000000E+00
      0.00000000000000E+00   0.00000000000000E+00   0.00000000000000E+00   0.00000000000000E+00   0.00000000000000E+00
      1.92797610768586E-18   0.00000000000000E+00   0.00000000000000E+00   0.00000000000000E+00   0.00000000000000E+00
      2.93123225416970E-18  -1.08250207702302E-34   2.93123225416970E-18  -1.30841252106075E-17   9.21245878188001E-04
      9.21245837778226E-04   0.00000000000000E+00   0.00000000000000E+00   2.18969226073124E-10   2.47879815857834E-35
      2.18969226073124E-10   5.56189253399632E-18
      2.12607426534693E-02
      0.00000000000000E+00   4.61237586000325E-11   0.00000000000000E+00   0.00000000000000E+00  -2.51430480469369E-10
      9.14973435607638E-35  -2.51430480469369E-10   5.59413191442833E-18   0.00000000000000E+00   0.00000000000000E+00
      0.00000000000000E+00   0.00000000000000E+00   0.00000000000000E+00   0.00000000000000E+00   0.00000000000000E+00
      1.92608586290668E-18   0.00000000000000E+00   0.00000000000000E+00   0.00000000000000E+00   0.00000000000000E+00
      1.02098577833152E-18  -1.26978799732500E-34   1.02098577833152E-18  -1.30840474918294E-17   1.06303713267347E-03
      1.06303708627303E-03   0.00000000000000E+00   0.00000000000000E+00   2.51430479448383E-10   3.54814561717367E-35
      2.51430479448383E-10   5.56382971449443E-18
      2.43801502521496E-02
      0.00000000000000E+00   5.26036571511197E-11   0.00000000000000E+00   0.00000000000000E+00  -2.86752839107637E-10
      1.27974437993434E-34  -2.86752839107637E-10   5.59399479770157E-18   0.00000000000000E+00   0.00000000000000E+00
      0.00000000000000E+00   0.00000000000000E+00   0.00000000000000E+00   0.00000000000000E+00   0.00000000000000E+00
      1.92400666452366E-18   0.00000000000000E+00   0.00000000000000E+00   0.00000000000000E+00   0.00000000000000E+00
      1.19939549890018E-18  -1.53744958030540E-34   1.19939549890018E-18  -1.30839621840196E-17   1.21900751260748E-03
      1.21900745968833E-03   0.00000000000000E+00   0.00000000000000E+00   2.86752837908242E-10   2.57705200371058E-35
      2.86752837908242E-10   5.56596072179434E-18
      2.78114986106979E-02
      0.00000000000000E+00   5.96463677275322E-11   0.00000000000000E+00   0.00000000000000E+00  -3.25142735662779E-10
      9.16190134733265E-35  -3.25142735662779E-10   5.59384397319277E-18   0.00000000000000E+00   0.00000000000000E+00
      0.00000000000000E+00   0.00000000000000E+00   0.00000000000000E+00   0.00000000000000E+00   0.00000000000000E+00
      1.92171963185785E-18   0.00000000000000E+00   0.00000000000000E+00   0.00000000000000E+00   0.00000000000000E+00
      1.96870962371191E-18  -1.12913548122533E-34   1.96870962371191E-18  -1.30838685662666E-17   1.39057493053490E-03
      1.39057487053087E-03   0.00000000000000E+00   0.00000000000000E+00   3.25142733694070E-10   2.12945346492069E-35
      3.25142733694070E-10   5.56830496121598E-18
      3.15859818051010E-02
      0.00000000000000E+00   6.72907007609504E-11   0.00000000000000E+00   0.00000000000000E+00  -3.66811614998253E-10
      8.41026770413485E-35  -3.66811614998253E-10   5.59367807093282E-18   0.00000000000000E+00   0.00000000000000E+00
      0.00000000000000E+00   0.00000000000000E+00   0.00000000000000E+00   0.00000000000000E+00   0.00000000000000E+00
      1.91920399917923E-18   0.00000000000000E+00   0.00000000000000E+00   0.00000000000000E+00   0.00000000000000E+00
      2.80732516236829E-18  -9.29690786004660E-35   2.80732516236829E-18  -1.30837658534132E-17   1.57929909025505E-03
      1.57929902256096E-03   0.00000000000000E+00   0.00000000000000E+00   3.66811612190928E-10   8.86640155911756E-36
      3.66811612190928E-10   5.57088378330111E-18
      3.57379133189445E-02
      0.00000000000000E+00   7.55759458528196E-11   0.00000000000000E+00   0.00000000000000E+00  -4.11973603283611E-10
      7.34904005455603E-35  -4.11973603283611E-10   5.59349558412209E-18   0.00000000000000E+00   0.00000000000000E+00
      0.00000000000000E+00   0.00000000000000E+00   0.00000000000000E+00   0.00000000000000E+00   0.00000000000000E+00
      1.91643692781481E-18   0.00000000000000E+00   0.00000000000000E+00   0.00000000000000E+00   0.00000000000000E+00
      4.24184646354996E-18  -9.51859075713972E-35   4.24184646354996E-18  -1.30836531912372E-17   1.78689566594722E-03
      1.78689558991832E-03   0.00000000000000E+00   0.00000000000000E+00   4.11973599041764E-10   2.16955070258369E-35
      4.11973599041764E-10   5.57372067930022E-18
      4.03050379841723E-02
      0.00000000000000E+00   8.45413638451223E-11   0.00000000000000E+00   0.00000000000000E+00  -4.60842522463156E-10
      8.03744077217396E-35  -4.60842522463156E-10   5.59329485548113E-18   0.00000000000000E+00   0.00000000000000E+00
      0.00000000000000E+00   0.00000000000000E+00   0.00000000000000E+00   0.00000000000000E+00   0.00000000000000E+00
      1.91339329958725E-18   0.00000000000000E+00   0.00000000000000E+00   0.00000000000000E+00   0.00000000000000E+00
      5.77336428750676E-18  -8.45756319911487E-35   5.77336428750676E-18  -1.30835296514708E-17   2.01525189920861E-03
      2.01525181416068E-03   0.00000000000000E+00   0.00000000000000E+00   4.60842516689791E-10   4.20122426940909E-36
      4.60842516689791E-10   5.57684149640242E-18
      4.53288751159228E-02
      0.00000000000000E+00   9.42254836051170E-11   0.00000000000000E+00   0.00000000000000E+00  -5.13628130952683E-10
      9.75913882233786E-35  -5.13628130952683E-10   5.59307406224313E-18   0.00000000000000E+00   0.00000000000000E+00
      0.00000000000000E+00   0.00000000000000E+00   0.00000000000000E+00   0.00000000000000E+00   0.00000000000000E+00
      1.91004548974401E-18   0.00000000000000E+00   0.00000000000000E+00   0.00000000000000E+00   0.00000000000000E+00
      8.40614909150223E-18  -1.36704826497710E-34   8.40614909150223E-18  -1.30833942267111E-17   2.26644375579614E-03
      2.26644366100622E-03   0.00000000000000E+00   0.00000000000000E+00   5.13628122546533E-10   3.91134382743311E-35
      5.13628122546533E-10   5.58027467472395E-18
      5.08550959608485E-02
      0.00000000000000E+00   1.04665224397850E-10   0.00000000000000E+00   0.00000000000000E+00  -5.70531496605373E-10
      1.11280447705180E-34  -5.70531496605373E-10   5.59283119965331E-18   0.00000000000000E+00   0.00000000000000E+00
      0.00000000000000E+00   0.00000000000000E+00   0.00000000000000E+00   0.00000000000000E+00   0.00000000000000E+00
      1.90636311735182E-18   0.00000000000000E+00   0.00000000000000E+00   0.00000000000000E+00   0.00000000000000E+00
      1.80047064263490E-17  -1.49021552662538E-34   1.80047064263490E-17  -1.30832458252821E-17   2.54275479804242E-03
      2.54275469275041E-03   0.00000000000000E+00   0.00000000000000E+00   5.70531478600667E-10   3.77411049573583E-35
      5.70531478600667E-10   5.58405150827695E-18
      5.69339388902666E-02
      0.00000000000000E+00   1.15894882347008E-10   0.00000000000000E+00   0.00000000000000E+00  -6.31739360281953E-10
      1.17115819717063E-34  -6.31739360281953E-10   5.59256406282762E-18   0.00000000000000E+00   0.00000000000000E+00
      0.00000000000000E+00   0.00000000000000E+00   0.00000000000000E+00   0.00000000000000E+00   0.00000000000000E+00
      1.90231277093396E-18   0.00000000000000E+00   0.00000000000000E+00   0.00000000000000E+00   0.00000000000000E+00
      1.83046362064781E-17  -1.41070985111451E-34   1.83046362064781E-17  -1.30830832661305E-17   2.84669694451333E-03
      2.84669682792464E-03   0.00000000000000E+00   0.00000000000000E+00   6.31739341977318E-10   2.39551653943874E-35
      6.31739341977318E-10   5.58820643236897E-18
      6.36206661126266E-02
      0.00000000000000E+00   1.27944929495403E-10   0.00000000000000E+00   0.00000000000000E+00  -6.97417503519344E-10
      9.62499878558785E-35  -6.97417503519344E-10   5.59227022680836E-18   0.00000000000000E+00   0.00000000000000E+00
      0.00000000000000E+00   0.00000000000000E+00   0.00000000000000E+00   0.00000000000000E+00   0.00000000000000E+00
      1.89785770691248E-18   0.00000000000000E+00   0.00000000000000E+00   0.00000000000000E+00   0.00000000000000E+00
      2.71663746471633E-17  -1.23565028496708E-34   2.71663746471633E-17  -1.30829052738652E-17   3.18103330563133E-03
      3.18103317692070E-03   0.00000000000000E+00   0.00000000000000E+00   6.97417476352969E-10   2.73150406408295E-35
      6.97417476352969E-10   5.59277734014431E-18
      7.09760660572226E-02
      0.00000000000000E+00   1.40840539186690E-10   0.00000000000000E+00   0.00000000000000E+00  -7.67702870514745E-10
      8.85345996879567E-35  -7.67702870514745E-10   5.59194702463868E-18   0.00000000000000E+00   0.00000000000000E+00
      0.00000000000000E+00   0.00000000000000E+00   0.00000000000000E+00   0.00000000000000E+00   0.00000000000000E+00
      1.89295751819485E-18   0.00000000000000E+00   0.00000000000000E+00   0.00000000000000E+00   0.00000000000000E+00
      9.42676994627394E-17  -1.08296960134263E-34   9.42676994627394E-17  -1.30827104740986E-17   3.54880330286113E-03
      3.54880316117801E-03   0.00000000000000E+00   0.00000000000000E+00   7.67702776247044E-10   1.97623604463062E-35
      7.67702776247044E-10   5.59780593126501E-18
      7.90670059962782E-02
      0.00000000000000E+00   1.54599878588204E-10   0.00000000000000E+00   0.00000000000000E+00  -8.42694038791055E-10
      7.41042033253086E-35  -8.42694038791055E-10   5.59159152326101E-18   0.00000000000000E+00   0.00000000000000E+00
      0.00000000000000E+00   0.00000000000000E+00   0.00000000000000E+00   0.00000000000000E+00   0.00000000000000E+00
      1.88756777000220E-18   0.00000000000000E+00   0.00000000000000E+00   0.00000000000000E+00   0.00000000000000E+00
      6.90006012720580E-17  -1.09731292728552E-34   6.90006012720580E-17  -1.30824973893009E-17   3.95335029981391E-03
      3.95335014428951E-03   0.00000000000000E+00   0.00000000000000E+00   8.42693969790454E-10   3.56270894032437E-35
      8.42693969790454E-10   5.60333809603769E-18
      8.79670399292394E-02
      0.00000000000000E+00   1.69232360393923E-10   0.00000000000000E+00   0.00000000000000E+00  -9.22442089564841E-10
      1.19317782627820E-34  -9.22442089564841E-10   5.59120049701761E-18   0.00000000000000E+00   0.00000000000000E+00
      0.00000000000000E+00   0.00000000000000E+00   0.00000000000000E+00   0.00000000000000E+00   0.00000000000000E+00
      1.88163959947569E-18   0.00000000000000E+00   0.00000000000000E+00   0.00000000000000E+00   0.00000000000000E+00
      8.52257043857474E-17  -1.66189107733148E-34   8.52257043857474E-17  -1.30822644350790E-17   4.39835199646197E-03
      4.39835182621801E-03   0.00000000000000E+00   0.00000000000000E+00   9.22442004339137E-10   4.68713251053285E-35
      9.22442004339137E-10   5.60942433858571E-18
      9.77570772554967E-02
      0.00000000000000E+00   1.84736482153828E-10   0.00000000000000E+00   0.00000000000000E+00  -1.00693845814586E-09
      9.88062217347499E-35  -1.00693845814586E-09   5.59077039852877E-18   0.00000000000000E+00   0.00000000000000E+00
      0.00000000000000E+00   0.00000000000000E+00   0.00000000000000E+00   0.00000000000000E+00   0.00000000000000E+00
      1.87511927593097E-18   0.00000000000000E+00   0.00000000000000E+00   0.00000000000000E+00   0.00000000000000E+00
      1.24668860335445E-16  -1.45906521909672E-34   1.24668860335445E-16  -1.30820099176561E-17   4.88785386277484E-03
      4.88785367693458E-03   0.00000000000000E+00   0.00000000000000E+00   1.00693833347701E-09   4.71003001749219E-35
      1.00693833347701E-09   5.61612024319632E-18
      1.07757077255497E-01
      0.00000000000000E+00   1.99952703596812E-10   0.00000000000000E+00   0.00000000000000E+00  -1.08986364873272E-09
      1.02212386446775E-34  -1.08986364873272E-09   5.59033110852735E-18   0.00000000000000E+00   0.00000000000000E+00
      0.00000000000000E+00   0.00000000000000E+00   0.00000000000000E+00   0.00000000000000E+00   0.00000000000000E+00
      1.86845982694617E-18   0.00000000000000E+00   0.00000000000000E+00   0.00000000000000E+00   0.00000000000000E+00
      1.43035524743246E-16  -1.24268615662868E-34   1.43035524743246E-16  -1.30817518048813E-17   5.38785386277483E-03
      5.38785366162798E-03   0.00000000000000E+00   0.00000000000000E+00   1.08986350569719E-09   2.20562292160929E-35
      1.08986350569719E-09   5.62296086940780E-18
      1.17757077255497E-01
      0.00000000000000E+00   2.14562283592605E-10   0.00000000000000E+00   0.00000000000000E+00  -1.16948070897757E-09
      7.99334492688011E-35  -1.16948070897757E-09   5.58989185124576E-18   0.00000000000000E+00   0.00000000000000E+00
      0.00000000000000E+00   0.00000000000000E+00   0.00000000000000E+00   0.00000000000000E+00   0.00000000000000E+00
      1.86180109330432E-18   0.00000000000000E+00   0.00000000000000E+00   0.00000000000000E+00   0.00000000000000E+00
      8.54067579411445E-19  -9.71728938663452E-35   8.54067579411445E-19  -1.30814955642426E-17   5.88785386277483E-03
      5.88785364693173E-03   0.00000000000000E+00   0.00000000000000E+00   1.16948070812350E-09   1.72394445975440E-35
      1.16948070812350E-09   5.62980261969248E-18
      1.27757077255497E-01
      0.00000000000000E+00   2.28585547196007E-10   0.00000000000000E+00   0.00000000000000E+00  -1.24590104332478E-09
      1.17637532501023E-34  -1.24590104332478E-09   5.58945262643320E-18   0.00000000000000E+00   0.00000000000000E+00
      0.00000000000000E+00   0.00000000000000E+00   0.00000000000000E+00   0.00000000000000E+00   0.00000000000000E+00
      1.85514306970890E-18   0.00000000000000E+00   0.00000000000000E+00   0.00000000000000E+00   0.00000000000000E+00
      1.44602532934895E-16  -1.34310773680064E-34   1.44602532934895E-16  -1.30812411849616E-17   6.38785386277483E-03
      6.38785363282532E-03   0.00000000000000E+00   0.00000000000000E+00   1.24590089872225E-09   1.66732411790402E-35
      1.24590089872225E-09   5.63664548881946E-18
      1.37757077255497E-01
      0.00000000000000E+00   2.42042486872541E-10   0.00000000000000E+00   0.00000000000000E+00  -1.31923368700355E-09
      8.92230380346276E-35  -1.31923368700355E-09   5.58901343383637E-18   0.00000000000000E+00   0.00000000000000E+00
      0.00000000000000E+00   0.00000000000000E+00   0.00000000000000E+00   0.00000000000000E+00   0.00000000000000E+00
      1.84848575088660E-18   0.00000000000000E+00   0.00000000000000E+00   0.00000000000000E+00   0.00000000000000E+00
      1.57000795496557E-16  -1.02627634935600E-34   1.57000795496557E-16  -1.30809886563179E-17   6.88785386277483E-03
      6.88785361928867E-03   0.00000000000000E+00   0.00000000000000E+00   1.31923353000276E-09   1.34045969009724E-35
      1.31923353000276E-09   5.64348947159498E-18
      1.47757077255497E-01
      0.00000000000000E+00   2.54952820017381E-10   0.00000000000000E+00   0.00000000000000E+00  -1.38958635497283E-09
      8.29798520878516E-35  -1.38958635497283E-09   5.58857427320281E-18   0.00000000000000E+00   0.00000000000000E+00
      0.00000000000000E+00   0.00000000000000E+00   0.00000000000000E+00   0.00000000000000E+00   0.00000000000000E+00
      1.84182913160565E-18   0.00000000000000E+00   0.00000000000000E+00   0.00000000000000E+00   0.00000000000000E+00
      1.54855439750399E-16  -1.16296421127536E-34   1.54855439750399E-16  -1.30807379676599E-17   7.38785386277483E-03
      7.38785360630193E-03   0.00000000000000E+00   0.00000000000000E+00   1.38958620011739E-09   3.33165690396842E-35
      1.38958620011739E-09   5.65033456285144E-18
      1.57757077255497E-01
      0.00000000000000E+00   2.67335847477349E-10   0.00000000000000E+00   0.00000000000000E+00  -1.45706462805882E-09
      8.91635712882994E-35  -1.45706462805882E-09   5.58813514427650E-18   0.00000000000000E+00   0.00000000000000E+00
      0.00000000000000E+00   0.00000000000000E+00   0.00000000000000E+00   0.00000000000000E+00   0.00000000000000E+00
      1.83517320664056E-18   0.00000000000000E+00   0.00000000000000E+00   0.00000000000000E+00   0.00000000000000E+00
      1.70534722331632E-16  -1.17103743085535E-34   1.70534722331632E-16  -1.30804891083598E-17   7.88785386277484E-03
      7.88785359384569E-03   0.00000000000000E+00   0.00000000000000E+00   1.45706445752410E-09   2.79401717972352E-35
      1.45706445752410E-09   5.65718075744274E-18
      1.67757077255497E-01
      0.00000000000000E+00   2.79210446592975E-10   0.00000000000000E+00   0.00000000000000E+00  -1.52177159813561E-09
      8.86823307589013E-35  -1.52177159813561E-09   5.58769604680161E-18   0.00000000000000E+00   0.00000000000000E+00
      0.00000000000000E+00   0.00000000000000E+00   0.00000000000000E+00   0.00000000000000E+00   0.00000000000000E+00
      1.82851797080775E-18   0.00000000000000E+00   0.00000000000000E+00   0.00000000000000E+00   0.00000000000000E+00
      1.37986329423310E-16  -9.81734573051562E-35   1.37986329423310E-16  -1.30802420678567E-17   8.38785386277484E-03
      8.38785358190093E-03   0.00000000000000E+00   0.00000000000000E+00   1.52177146014928E-09   9.49112654625490E-36
      1.52177146014928E-09   5.66402805024738E-18
      1.77757077255497E-01
      0.00000000000000E+00   2.90595029450897E-10   0.00000000000000E+00   0.00000000000000E+00  -1.58380789438778E-09
      9.62897184454749E-35  -1.58380789438778E-09   5.58725698052475E-18   0.00000000000000E+00   0.00000000000000E+00
      0.00000000000000E+00   0.00000000000000E+00   0.00000000000000E+00   0.00000000000000E+00   0.00000000000000E+00
      1.82186341902798E-18   0.00000000000000E+00   0.00000000000000E+00   0.00000000000000E+00   0.00000000000000E+00
      1.37113865634861E-16  -1.33232333624747E-34   1.37113865634861E-16  -1.30799968357550E-17   8.88785386277484E-03
      8.88785357044917E-03   0.00000000000000E+00   0.00000000000000E+00   1.58380775727392E-09   3.69426151792726E-35
      1.58380775727392E-09   5.67087643620229E-18
      1.87757077255497E-01
      0.00000000000000E+00   3.01507516907565E-10   0.00000000000000E+00   0.00000000000000E+00  -1.64327146803903E-09
      1.21247142653848E-34  -1.64327146803903E-09   5.58681794519282E-18   0.00000000000000E+00   0.00000000000000E+00
      0.00000000000000E+00   0.00000000000000E+00   0.00000000000000E+00   0.00000000000000E+00   0.00000000000000E+00
      1.81520954626332E-18   0.00000000000000E+00   0.00000000000000E+00   0.00000000000000E+00   0.00000000000000E+00
      1.35263271947349E-16  -1.36167265353154E-34   1.35263271947349E-16  -1.30797534017328E-17   9.38785386277484E-03
      9.38785355947237E-03   0.00000000000000E+00   0.00000000000000E+00   1.64327133277576E-09   1.49201226993067E-35
      1.64327133277576E-09   5.67772591027670E-18
      1.97757077255497E-01
      0.00000000000000E+00   3.11965463832069E-10   0.00000000000000E+00   0.00000000000000E+00  -1.70025814995979E-09