DF-ISE text

Info {
  version   = 1.0
  type      = xyplot
  datasets  = [
    "time"
    "source OuterVoltage" "source InnerVoltage" "source QuasiFermiPotential" "source DisplacementCurrent" "source eCurrent"
    "source hCurrent" "source TotalCurrent" "source Charge" "gate OuterVoltage" "gate InnerVoltage"
    "gate QuasiFermiPotential" "gate DisplacementCurrent" "gate eCurrent" "gate hCurrent" "gate TotalCurrent"
    "gate Charge" "substrate OuterVoltage" "substrate InnerVoltage" "substrate QuasiFermiPotential" "substrate DisplacementCurrent"
    "substrate eCurrent" "substrate hCurrent" "substrate TotalCurrent" "substrate Charge" "drain OuterVoltage"
    "drain InnerVoltage" "drain QuasiFermiPotential" "drain DisplacementCurrent" "drain eCurrent" "drain hCurrent"
    "drain TotalCurrent" "drain Charge" ]
  functions = [
    Time
    OuterVoltage InnerVoltage QuasiFermiPotential DisplacementCurrent eCurrent
    hCurrent TotalCurrent Charge OuterVoltage InnerVoltage
    QuasiFermiPotential DisplacementCurrent eCurrent hCurrent TotalCurrent
    Charge OuterVoltage InnerVoltage QuasiFermiPotential DisplacementCurrent
    eCurrent hCurrent TotalCurrent Charge OuterVoltage
    InnerVoltage QuasiFermiPotential DisplacementCurrent eCurrent hCurrent
    TotalCurrent Charge ]
}

Data {
      0.00000000000000E+00
      0.00000000000000E+00   0.00000000000000E+00   0.00000000000000E+00   0.00000000000000E+00  -5.06432932890649E-20
      8.21315588854283E-34  -5.06432932890641E-20   7.10835714731398E-18   0.00000000000000E+00   0.00000000000000E+00
      0.00000000000000E+00   0.00000000000000E+00   0.00000000000000E+00   0.00000000000000E+00   0.00000000000000E+00
      4.29905890059493E-18   0.00000000000000E+00   0.00000000000000E+00   0.00000000000000E+00   0.00000000000000E+00
      4.88757503774368E-20  -1.71880580292203E-33   4.88757503774351E-20  -1.69888079943976E-17   0.00000000000000E+00
      0.00000000000000E+00   0.00000000000000E+00   0.00000000000000E+00   1.76754291162805E-21   8.97490214067744E-34
      1.76754291162895E-21   5.58139194648872E-18
      0.00000000000000E+00
      0.00000000000000E+00   2.18677945732207E-18   0.00000000000000E+00   0.00000000000000E+00  -4.62804935904986E-18
      8.39530565424665E-34  -4.62804935904986E-18   7.10349559208865E-18   0.00000000000000E+00   0.00000000000000E+00
      0.00000000000000E+00   0.00000000000000E+00   0.00000000000000E+00   0.00000000000000E+00   0.00000000000000E+00
      4.28952962991244E-18   0.00000000000000E+00   0.00000000000000E+00   0.00000000000000E+00   0.00000000000000E+00
      4.93476995042910E-18  -1.69692540676802E-33   4.93476995042910E-18  -1.69704020178142E-17   0.00000000000000E+00
      0.00000000000000E+00   0.00000000000000E+00   0.00000000000000E+00  -3.06720591379237E-19   8.57394841343353E-34
     -3.06720591379236E-19   5.57737679581322E-18
      1.00000000000000E-03
      0.00000000000000E+00   8.30851109997426E-13   0.00000000000000E+00   0.00000000000000E+00  -4.95847204068265E-12
      8.50072448268730E-34  -4.95847204068265E-12   7.10346388566957E-18   0.00000000000000E+00   0.00000000000000E+00
      0.00000000000000E+00   0.00000000000000E+00   0.00000000000000E+00   0.00000000000000E+00   0.00000000000000E+00
      4.28890746788029E-18   0.00000000000000E+00   0.00000000000000E+00   0.00000000000000E+00   0.00000000000000E+00
     -6.04193060645298E-19  -1.75080080741600E-33  -6.04193060645299E-19  -1.69703957892769E-17   5.00000000000000E-05
      4.99999991684168E-05   0.00000000000000E+00   0.00000000000000E+00   4.95847264487571E-12   9.00728359147272E-34
      4.95847264487571E-12   5.57802443572709E-18
      2.09333333333333E-03
      0.00000000000000E+00   1.73654343485403E-12   0.00000000000000E+00   0.00000000000000E+00  -1.03636067025985E-11
      8.17847461678421E-34  -1.03636067025985E-11   7.10342922015991E-18   0.00000000000000E+00   0.00000000000000E+00
      0.00000000000000E+00   0.00000000000000E+00   0.00000000000000E+00   0.00000000000000E+00   0.00000000000000E+00
      4.28822724507232E-18   0.00000000000000E+00   0.00000000000000E+00   0.00000000000000E+00   0.00000000000000E+00
     -1.01894066263589E-18  -1.70042876472564E-33  -1.01894066263589E-18  -1.69703889988442E-17   1.04666666666667E-04
      1.04666664928593E-04   0.00000000000000E+00   0.00000000000000E+00   1.03636077215392E-11   8.82581303047220E-34
      1.03636077215392E-11   5.57873253361192E-18
      3.29600000000000E-03
      0.00000000000000E+00   2.72943402792723E-12   0.00000000000000E+00   0.00000000000000E+00  -1.62891059234098E-11
      8.28030810969775E-34  -1.62891059234098E-11   7.10339108831090E-18   0.00000000000000E+00   0.00000000000000E+00
      0.00000000000000E+00   0.00000000000000E+00   0.00000000000000E+00   0.00000000000000E+00   0.00000000000000E+00
      4.28747900924080E-18   0.00000000000000E+00   0.00000000000000E+00   0.00000000000000E+00   0.00000000000000E+00
      6.38923868907208E-19  -1.71086010390930E-33   6.38923868907207E-19  -1.69703815527968E-17   1.64800000000000E-04
      1.64799997268167E-04   0.00000000000000E+00   0.00000000000000E+00   1.62891052844859E-11   8.82829292939525E-34
      1.62891052844859E-11   5.57951145524508E-18
      4.61893333333333E-03
      0.00000000000000E+00   3.81745608773232E-12   0.00000000000000E+00   0.00000000000000E+00  -2.27822970769364E-11
      8.36818487237944E-34  -2.27822970769364E-11   7.10334914353331E-18   0.00000000000000E+00   0.00000000000000E+00
      0.00000000000000E+00   0.00000000000000E+00   0.00000000000000E+00   0.00000000000000E+00   0.00000000000000E+00
      4.28665596101603E-18   0.00000000000000E+00   0.00000000000000E+00   0.00000000000000E+00   0.00000000000000E+00
      6.71098892472516E-19  -1.71233643250033E-33   6.71098892472514E-19  -1.69703733904702E-17   2.30946666666667E-04
      2.30946662845859E-04   0.00000000000000E+00   0.00000000000000E+00   2.27822964058375E-11   8.75517945262391E-34
      2.27822964058375E-11   5.58036828592079E-18
      6.07416000000000E-03
      0.00000000000000E+00   5.00916298343867E-12   0.00000000000000E+00   0.00000000000000E+00  -2.98943305254475E-11
      8.01358919096958E-34  -2.98943305254475E-11   7.10330300458834E-18   0.00000000000000E+00   0.00000000000000E+00
      0.00000000000000E+00   0.00000000000000E+00   0.00000000000000E+00   0.00000000000000E+00   0.00000000000000E+00
      4.28575062149339E-18   0.00000000000000E+00   0.00000000000000E+00   0.00000000000000E+00   0.00000000000000E+00
      3.85067897732534E-19  -1.68161175994249E-33   3.85067897732532E-19  -1.69703644461538E-17   3.03708000000000E-04
      3.03707994986427E-04   0.00000000000000E+00   0.00000000000000E+00   2.98943301403796E-11   8.80252840845531E-34
      2.98943301403796E-11   5.58131082007209E-18
      7.67490933333333E-03
      0.00000000000000E+00   6.31381178984499E-12   0.00000000000000E+00   0.00000000000000E+00  -3.76803287717205E-11
      8.13926426639601E-34  -3.76803287717205E-11   7.10325225212445E-18   0.00000000000000E+00   0.00000000000000E+00
      0.00000000000000E+00   0.00000000000000E+00   0.00000000000000E+00   0.00000000000000E+00   0.00000000000000E+00
      4.28475476436298E-18   0.00000000000000E+00   0.00000000000000E+00   0.00000000000000E+00   0.00000000000000E+00
     -1.84611808330876E-19  -1.68012460113188E-33  -1.84611808330878E-19  -1.69703546487990E-17   3.83745466666667E-04
      3.83745460347306E-04   0.00000000000000E+00   0.00000000000000E+00   3.76803289563323E-11   8.66198174492274E-34
      3.76803289563323E-11   5.58234763231157E-18
      9.43573360000000E-03
      0.00000000000000E+00   7.74133704602592E-12   0.00000000000000E+00   0.00000000000000E+00  -4.61995343352413E-11
      8.23722125266950E-34  -4.61995343352413E-11   7.10319642486859E-18   0.00000000000000E+00   0.00000000000000E+00
      0.00000000000000E+00   0.00000000000000E+00   0.00000000000000E+00   0.00000000000000E+00   0.00000000000000E+00
      4.28365934126954E-18   0.00000000000000E+00   0.00000000000000E+00   0.00000000000000E+00   0.00000000000000E+00
     -1.42316851948443E-18  -1.68897998816287E-33  -1.42316851948444E-18  -1.69703439217402E-17   4.71786680000000E-04
      4.71786672251876E-04   0.00000000000000E+00   0.00000000000000E+00   4.61995357584099E-11   8.65257862895924E-34
      4.61995357584099E-11   5.58348815560211E-18
      1.13726402933333E-02
      0.00000000000000E+00   9.30235600360264E-12   0.00000000000000E+00   0.00000000000000E+00  -5.55154338500452E-11
      8.48912001674753E-34  -5.55154338500452E-11   7.10313501543673E-18   0.00000000000000E+00   0.00000000000000E+00
      0.00000000000000E+00   0.00000000000000E+00   0.00000000000000E+00   0.00000000000000E+00   0.00000000000000E+00
      4.28245439972847E-18   0.00000000000000E+00   0.00000000000000E+00   0.00000000000000E+00   0.00000000000000E+00
     -5.86373450455612E-19  -1.70286812063685E-33  -5.86373450455613E-19  -1.69703321824418E-17   5.68632014666667E-04
      5.68632005356160E-04   0.00000000000000E+00   0.00000000000000E+00   5.55154344364186E-11   8.53956118962095E-34
      5.55154344364186E-11   5.58474276727653E-18
      1.35032376560000E-02
      0.00000000000000E+00   1.10082460387357E-11   0.00000000000000E+00   0.00000000000000E+00  -6.56958289229104E-11
      8.05714264513004E-34  -6.56958289229104E-11   7.10306746572620E-18   0.00000000000000E+00   0.00000000000000E+00
      0.00000000000000E+00   0.00000000000000E+00   0.00000000000000E+00   0.00000000000000E+00   0.00000000000000E+00
      4.28112899285848E-18   0.00000000000000E+00   0.00000000000000E+00   0.00000000000000E+00   0.00000000000000E+00
      8.59507409581190E-20  -1.65181445866464E-33   8.59507409581174E-20  -1.69703193422819E-17   6.75161882800000E-04
      6.75161871782110E-04   0.00000000000000E+00   0.00000000000000E+00   6.56958288369596E-11   8.46100194151634E-34
      6.56958288369596E-11   5.58612288369721E-18
      1.58468947549333E-02
      0.00000000000000E+00   1.28711013538918E-11   0.00000000000000E+00   0.00000000000000E+00  -7.68128658871120E-11
      8.07958690013471E-34  -7.68128658871120E-11   7.10299316184794E-18   0.00000000000000E+00   0.00000000000000E+00
      0.00000000000000E+00   0.00000000000000E+00   0.00000000000000E+00   0.00000000000000E+00   0.00000000000000E+00
      4.27967108011693E-18   0.00000000000000E+00   0.00000000000000E+00   0.00000000000000E+00   0.00000000000000E+00
      1.39803856993410E-19  -1.68536899365658E-33   1.39803856993408E-19  -1.69703053063922E-17   7.92344737746667E-04
      7.92344724864301E-04   0.00000000000000E+00   0.00000000000000E+00   7.68128657473081E-11   8.77410303643107E-34
      7.68128657473081E-11   5.58764106442735E-18
      1.84249175637600E-02
      0.00000000000000E+00   1.49037290416406E-11   0.00000000000000E+00   0.00000000000000E+00  -8.89429862267957E-11
      8.22740785716913E-34  -8.89429862267957E-11   7.10291142855264E-18   0.00000000000000E+00   0.00000000000000E+00
      0.00000000000000E+00   0.00000000000000E+00   0.00000000000000E+00   0.00000000000000E+00   0.00000000000000E+00
      4.27806741814441E-18   0.00000000000000E+00   0.00000000000000E+00   0.00000000000000E+00   0.00000000000000E+00
      2.53174806677795E-18  -1.67091669542280E-33   2.53174806677795E-18  -1.69702899735717E-17   9.21245878188001E-04
      9.21245863271246E-04   0.00000000000000E+00   0.00000000000000E+00   8.89429836950476E-11   8.48175909705890E-34
      8.89429836950476E-11   5.58931112687468E-18
      2.12607426534693E-02
      0.00000000000000E+00   1.71196416496049E-11   0.00000000000000E+00   0.00000000000000E+00  -1.02166770768543E-10
      8.07037879476399E-34  -1.02166770768543E-10   7.10282152310081E-18   0.00000000000000E+00   0.00000000000000E+00
      0.00000000000000E+00   0.00000000000000E+00   0.00000000000000E+00   0.00000000000000E+00   0.00000000000000E+00
      4.27630344073554E-18   0.00000000000000E+00   0.00000000000000E+00   0.00000000000000E+00   0.00000000000000E+00
      4.69400780145043E-19  -1.65124840423169E-33   4.69400780145041E-19  -1.69702732363020E-17   1.06303713267347E-03
      1.06303711553888E-03   0.00000000000000E+00   0.00000000000000E+00   1.02166770299143E-10   8.44210524755290E-34
      1.02166770299143E-10   5.59114827246560E-18
      2.43801502521496E-02
      0.00000000000000E+00   1.95330033856856E-11   0.00000000000000E+00   0.00000000000000E+00  -1.16568696613332E-10
      8.40212830852929E-34  -1.16568696613332E-10   7.10272262852055E-18   0.00000000000000E+00   0.00000000000000E+00
      0.00000000000000E+00   0.00000000000000E+00   0.00000000000000E+00   0.00000000000000E+00   0.00000000000000E+00
      4.27436312685910E-18   0.00000000000000E+00   0.00000000000000E+00   0.00000000000000E+00   0.00000000000000E+00
     -1.59836521462949E-18  -1.70283701449320E-33  -1.59836521462949E-18  -1.69702549808965E-17   1.21900751260748E-03
      1.21900749305745E-03   0.00000000000000E+00   0.00000000000000E+00   1.16568698211697E-10   8.62624183640269E-34
      1.16568698211697E-10   5.59316922551678E-18
      2.78114986106979E-02
      0.00000000000000E+00   2.21585492072221E-11   0.00000000000000E+00   0.00000000000000E+00  -1.32236713258241E-10
      7.96905266995864E-34  -1.32236713258241E-10   7.10261384619307E-18   0.00000000000000E+00   0.00000000000000E+00
      0.00000000000000E+00   0.00000000000000E+00   0.00000000000000E+00   0.00000000000000E+00   0.00000000000000E+00
      4.27222885554090E-18   0.00000000000000E+00   0.00000000000000E+00   0.00000000000000E+00   0.00000000000000E+00
     -2.74784708443067E-18  -1.63997981232097E-33  -2.74784708443067E-18  -1.69702350878237E-17   1.39057493053490E-03
      1.39057490835706E-03   0.00000000000000E+00   0.00000000000000E+00   1.32236716006088E-10   8.43074545325104E-34
      1.32236716006088E-10   5.59539238608967E-18
      3.15859818051010E-02
      0.00000000000000E+00   2.50115275273702E-11   0.00000000000000E+00   0.00000000000000E+00  -1.49261645473379E-10
      8.37952444614049E-34  -1.49261645473379E-10   7.10249418769808E-18   0.00000000000000E+00   0.00000000000000E+00
      0.00000000000000E+00   0.00000000000000E+00   0.00000000000000E+00   0.00000000000000E+00   0.00000000000000E+00
      4.26988124631318E-18   0.00000000000000E+00   0.00000000000000E+00   0.00000000000000E+00   0.00000000000000E+00
     -5.42783215989271E-19  -1.69760852963898E-33  -5.42783215989273E-19  -1.69702134322576E-17   1.57929909025505E-03
      1.57929906522180E-03   0.00000000000000E+00   0.00000000000000E+00   1.49261646016162E-10   8.59656085024931E-34
      1.49261646016162E-10   5.59783799824635E-18
      3.57379133189445E-02
      0.00000000000000E+00   2.81075117147132E-11   0.00000000000000E+00   0.00000000000000E+00  -1.67736432589057E-10
      8.00066146385583E-34  -1.67736432589057E-10   7.10236256584560E-18   0.00000000000000E+00   0.00000000000000E+00
      0.00000000000000E+00   0.00000000000000E+00   0.00000000000000E+00   0.00000000000000E+00   0.00000000000000E+00
      4.26729898377152E-18   0.00000000000000E+00   0.00000000000000E+00   0.00000000000000E+00   0.00000000000000E+00
     -1.27549531282169E-18  -1.62681481924969E-33  -1.27549531282169E-18  -1.69701898848792E-17   1.78689566594722E-03
      1.78689563781534E-03   0.00000000000000E+00   0.00000000000000E+00   1.67736433864553E-10   8.26748672864112E-34
      1.67736433864553E-10   5.60052833526213E-18
      4.03050379841723E-02
      0.00000000000000E+00   3.14622632008677E-11   0.00000000000000E+00   0.00000000000000E+00  -1.87755056354832E-10
      8.13624176362518E-34  -1.87755056354832E-10   7.10221778481385E-18   0.00000000000000E+00   0.00000000000000E+00
      0.00000000000000E+00   0.00000000000000E+00   0.00000000000000E+00   0.00000000000000E+00   0.00000000000000E+00
      4.26445862472642E-18   0.00000000000000E+00   0.00000000000000E+00   0.00000000000000E+00   0.00000000000000E+00
     -1.93052122530443E-17  -1.62104081503024E-33  -1.93052122530443E-17  -1.69701643130758E-17   2.01525189920861E-03
      2.01525186771912E-03   0.00000000000000E+00   0.00000000000000E+00   1.87755075660044E-10   8.07416638667726E-34
      1.87755075660044E-10   5.60348790353546E-18
      4.53288751159228E-02
      0.00000000000000E+00   3.50915044927760E-11   0.00000000000000E+00   0.00000000000000E+00  -2.09411160570689E-10
      8.35541628890943E-34  -2.09411160570689E-10   7.10205852930342E-18   0.00000000000000E+00   0.00000000000000E+00
      0.00000000000000E+00   0.00000000000000E+00   0.00000000000000E+00   0.00000000000000E+00   0.00000000000000E+00
      4.26133438617976E-18   0.00000000000000E+00   0.00000000000000E+00   0.00000000000000E+00   0.00000000000000E+00
     -7.07272582878760E-19  -1.66496863512680E-33  -7.07272582878761E-19  -1.69701365825636E-17   2.26644375579614E-03
      2.26644372067434E-03   0.00000000000000E+00   0.00000000000000E+00   2.09411161277961E-10   8.29427006235855E-34
      2.09411161277961E-10   5.60674366708045E-18
      5.08550959608485E-02
      0.00000000000000E+00   3.90105981534816E-11   0.00000000000000E+00   0.00000000000000E+00  -2.32796407087690E-10
      8.10918850999672E-34  -2.32796407087690E-10   7.10188335261025E-18   0.00000000000000E+00   0.00000000000000E+00
      0.00000000000000E+00   0.00000000000000E+00   0.00000000000000E+00   0.00000000000000E+00   0.00000000000000E+00
      4.25789791222384E-18   0.00000000000000E+00   0.00000000000000E+00   0.00000000000000E+00   0.00000000000000E+00
     -2.57929765504407E-18  -1.61229160813684E-33  -2.57929765504408E-18  -1.69701065595350E-17   2.54275479804242E-03
      2.54275475899822E-03   0.00000000000000E+00   0.00000000000000E+00   2.32796409666987E-10   8.01372757137163E-34
      2.32796409666987E-10   5.61032529470099E-18
      5.69339388902666E-02
      0.00000000000000E+00   4.32342542110381E-11   0.00000000000000E+00   0.00000000000000E+00  -2.57998375976994E-10
      7.96888980634663E-34  -2.57998375976994E-10   7.10169066350966E-18   0.00000000000000E+00   0.00000000000000E+00
      0.00000000000000E+00   0.00000000000000E+00   0.00000000000000E+00   0.00000000000000E+00   0.00000000000000E+00
      4.25411801783184E-18   0.00000000000000E+00   0.00000000000000E+00   0.00000000000000E+00   0.00000000000000E+00
     -2.08382818345441E-18  -1.58215131432712E-33  -2.08382818345441E-18  -1.69700741135132E-17   2.84669694451333E-03
      2.84669690124192E-03   0.00000000000000E+00   0.00000000000000E+00   2.57998378060823E-10   7.85262333692461E-34
      2.57998378060823E-10   5.61426543217166E-18
      6.36206661126266E-02
      0.00000000000000E+00   4.77760704974670E-11   0.00000000000000E+00   0.00000000000000E+00  -2.85098012427868E-10
      8.19696480155661E-34  -2.85098012427868E-10   7.10147871183404E-18   0.00000000000000E+00   0.00000000000000E+00
      0.00000000000000E+00   0.00000000000000E+00   0.00000000000000E+00   0.00000000000000E+00   0.00000000000000E+00
      4.24996040722340E-18   0.00000000000000E+00   0.00000000000000E+00   0.00000000000000E+00   0.00000000000000E+00
     -2.50353712570245E-21  -1.59759616944239E-33  -2.50353712570404E-21  -1.69700391210266E-17   3.18103330563133E-03
      3.18103325781432E-03   0.00000000000000E+00   0.00000000000000E+00   2.85098012430371E-10   7.77899689286734E-34
      2.85098012430371E-10   5.61860000196917E-18
      7.09760660572226E-02
      0.00000000000000E+00   5.26480226917883E-11   0.00000000000000E+00   0.00000000000000E+00  -3.14166636209184E-10
      8.26077699135882E-34  -3.14166636209184E-10   7.10124557261308E-18   0.00000000000000E+00   0.00000000000000E+00
      0.00000000000000E+00   0.00000000000000E+00   0.00000000000000E+00   0.00000000000000E+00   0.00000000000000E+00
      4.24538736429674E-18   0.00000000000000E+00   0.00000000000000E+00   0.00000000000000E+00   0.00000000000000E+00
     -3.60527212537284E-19  -1.63561837622791E-33  -3.60527212537286E-19  -1.69700014702841E-17   3.54880330286113E-03
      3.54880325016813E-03   0.00000000000000E+00   0.00000000000000E+00   3.14166636569711E-10   8.09540677092029E-34
      3.14166636569711E-10   5.62336853337418E-18
      7.90670059962782E-02
      0.00000000000000E+00   5.78598909464470E-11   0.00000000000000E+00   0.00000000000000E+00  -3.45262365991969E-10
      8.22440256784533E-34  -3.45262365991969E-10   7.10098912863505E-18   0.00000000000000E+00   0.00000000000000E+00
      0.00000000000000E+00   0.00000000000000E+00   0.00000000000000E+00   0.00000000000000E+00   0.00000000000000E+00
      4.24035741241625E-18   0.00000000000000E+00   0.00000000000000E+00   0.00000000000000E+00   0.00000000000000E+00
      3.95106094194050E-18  -1.57999200376415E-33   3.95106094194050E-18  -1.69699610671202E-17   3.95335029981391E-03
      3.95335024190474E-03   0.00000000000000E+00   0.00000000000000E+00   3.45262362040908E-10   7.57551746979615E-34
      3.45262362040908E-10   5.62861452606894E-18
      8.79670399292394E-02
      0.00000000000000E+00   6.34185697397161E-11   0.00000000000000E+00   0.00000000000000E+00  -3.78426122967905E-10
      8.15724867377989E-34  -3.78426122967905E-10   7.10070705127067E-18   0.00000000000000E+00   0.00000000000000E+00
      0.00000000000000E+00   0.00000000000000E+00   0.00000000000000E+00   0.00000000000000E+00   0.00000000000000E+00
      4.23482494045224E-18   0.00000000000000E+00   0.00000000000000E+00   0.00000000000000E+00   0.00000000000000E+00
      1.08753159682779E-17  -1.55250906416148E-33   1.08753159682779E-17  -1.69699178423637E-17   4.39835199646197E-03
      4.39835193298957E-03   0.00000000000000E+00   0.00000000000000E+00   3.78426112092589E-10   7.36784196783492E-34
      3.78426112092589E-10   5.63438585064079E-18
      9.77570772554967E-02
      0.00000000000000E+00   6.93272906942777E-11   0.00000000000000E+00   0.00000000000000E+00  -4.13676910376379E-10
      7.94427124620776E-34  -4.13676910376379E-10   7.10039677938941E-18   0.00000000000000E+00   0.00000000000000E+00
      0.00000000000000E+00   0.00000000000000E+00   0.00000000000000E+00   0.00000000000000E+00   0.00000000000000E+00
      4.22873979188676E-18   0.00000000000000E+00   0.00000000000000E+00   0.00000000000000E+00   0.00000000000000E+00
      1.76637741622831E-17  -1.56217634341136E-33   1.76637741622831E-17  -1.69698717611017E-17   4.88785386277484E-03
      4.88785379338891E-03   0.00000000000000E+00   0.00000000000000E+00   4.13676892712605E-10   7.67749218790585E-34
      4.13676892712605E-10   5.64073518982563E-18
      1.07757077255497E-01
      0.00000000000000E+00   7.51461498832437E-11   0.00000000000000E+00   0.00000000000000E+00  -4.48390148962527E-10
      8.15150334793948E-34  -4.48390148962527E-10   7.10007986741826E-18   0.00000000000000E+00   0.00000000000000E+00
      0.00000000000000E+00   0.00000000000000E+00   0.00000000000000E+00   0.00000000000000E+00   0.00000000000000E+00
      4.22252475000170E-18   0.00000000000000E+00   0.00000000000000E+00   0.00000000000000E+00   0.00000000000000E+00
      2.19252983355819E-17  -1.56602826391870E-33   2.19252983355819E-17  -1.69698262671023E-17   5.38785386277483E-03
      5.38785378756537E-03   0.00000000000000E+00   0.00000000000000E+00   4.48390127037228E-10   7.50877929124751E-34
      4.48390127037228E-10   5.64722164968233E-18
      1.17757077255497E-01
      0.00000000000000E+00   8.07524484233314E-11   0.00000000000000E+00   0.00000000000000E+00  -4.81833937226603E-10
      7.88615533304919E-34  -4.81833937226603E-10   7.09976296964586E-18   0.00000000000000E+00   0.00000000000000E+00
      0.00000000000000E+00   0.00000000000000E+00   0.00000000000000E+00   0.00000000000000E+00   0.00000000000000E+00
      4.21631032171063E-18   0.00000000000000E+00   0.00000000000000E+00   0.00000000000000E+00   0.00000000000000E+00
      1.20751436141833E-17  -1.50261157774179E-33   1.20751436141833E-17  -1.69697823549575E-17   5.88785386277483E-03
      5.88785378195460E-03   0.00000000000000E+00   0.00000000000000E+00   4.81833925151459E-10   7.13996044436869E-34
      4.81833925151459E-10   5.65370906360104E-18
      1.27757077255497E-01
      0.00000000000000E+00   8.61524977974104E-11   0.00000000000000E+00   0.00000000000000E+00  -5.14046139072811E-10
      8.10594776943207E-34  -5.14046139072811E-10   7.09944608594349E-18   0.00000000000000E+00   0.00000000000000E+00
      0.00000000000000E+00   0.00000000000000E+00   0.00000000000000E+00   0.00000000000000E+00   0.00000000000000E+00
      4.21009650191747E-18   0.00000000000000E+00   0.00000000000000E+00   0.00000000000000E+00   0.00000000000000E+00
      2.17265441260236E-17  -1.53357866546469E-33   2.17265441260236E-17  -1.69697400142797E-17   6.38785386277483E-03
      6.38785377655028E-03   0.00000000000000E+00   0.00000000000000E+00   5.14046117346267E-10   7.22983888521489E-34
      5.14046117346267E-10   5.66019742641872E-18
      1.37757077255497E-01
      0.00000000000000E+00   9.13525784360824E-11   0.00000000000000E+00   0.00000000000000E+00  -5.45064240683304E-10
      8.09898848684244E-34  -5.45064240683304E-10   7.09912921618234E-18   0.00000000000000E+00   0.00000000000000E+00
      0.00000000000000E+00   0.00000000000000E+00   0.00000000000000E+00   0.00000000000000E+00   0.00000000000000E+00
      4.20388328556808E-18   0.00000000000000E+00   0.00000000000000E+00   0.00000000000000E+00   0.00000000000000E+00
      1.30730479161585E-17  -1.53395050375330E-33   1.30730479161585E-17  -1.69696992347541E-17   6.88785386277483E-03
      6.88785377134612E-03   0.00000000000000E+00   0.00000000000000E+00   5.45064227610256E-10   7.24051655069059E-34
      5.45064227610256E-10   5.66668673300367E-18
      1.47757077255497E-01
      0.00000000000000E+00   9.63588404378930E-11   0.00000000000000E+00   0.00000000000000E+00  -5.74925206795738E-10
      8.40317817668641E-34  -5.74925206795738E-10   7.09881236023375E-18   0.00000000000000E+00   0.00000000000000E+00
      0.00000000000000E+00   0.00000000000000E+00   0.00000000000000E+00   0.00000000000000E+00   0.00000000000000E+00
      4.19767066766202E-18   0.00000000000000E+00   0.00000000000000E+00   0.00000000000000E+00   0.00000000000000E+00
      1.17999646224458E-17  -1.54421316802692E-33   1.17999646224458E-17  -1.69696600061527E-17   7.38785386277483E-03
      7.38785376633594E-03   0.00000000000000E+00   0.00000000000000E+00   5.74925194995773E-10   7.03895350358275E-34
      5.74925194995773E-10   5.67317697825693E-18
      1.57757077255497E-01
      0.00000000000000E+00   1.01177405910611E-10   0.00000000000000E+00   0.00000000000000E+00  -6.03665571692309E-10
      8.28356735055756E-34  -6.03665571692309E-10   7.09849551796823E-18   0.00000000000000E+00   0.00000000000000E+00
      0.00000000000000E+00   0.00000000000000E+00   0.00000000000000E+00   0.00000000000000E+00   0.00000000000000E+00
      4.19145864318198E-18   0.00000000000000E+00   0.00000000000000E+00   0.00000000000000E+00   0.00000000000000E+00
      1.89367347526996E-17  -1.51786411454644E-33   1.89367347526996E-17  -1.69696223182499E-17   7.88785386277484E-03
      7.88785376151364E-03   0.00000000000000E+00   0.00000000000000E+00   6.03665552755574E-10   6.89507379490686E-34
      6.03665552755574E-10   5.67966815709965E-18
      1.67757077255497E-01
      0.00000000000000E+00   1.05814237764460E-10   0.00000000000000E+00   0.00000000000000E+00  -6.31321115229175E-10
      8.25402970749676E-34  -6.31321115229175E-10   7.09817868925750E-18   0.00000000000000E+00   0.00000000000000E+00
      0.00000000000000E+00   0.00000000000000E+00   0.00000000000000E+00   0.00000000000000E+00   0.00000000000000E+00
      4.18524720719358E-18   0.00000000000000E+00   0.00000000000000E+00   0.00000000000000E+00   0.00000000000000E+00
      7.38384023167763E-18  -1.47659642601628E-33   7.38384023167763E-18  -1.69695861609453E-17   8.38785386277484E-03
      8.38785375687322E-03   0.00000000000000E+00   0.00000000000000E+00   6.31321107845335E-10   6.51193455266606E-34
      6.31321107845335E-10   5.68616026449419E-18
      1.77757077255497E-01
      0.00000000000000E+00   1.10275218436182E-10   0.00000000000000E+00   0.00000000000000E+00  -6.57926920892726E-10
      8.35928621628527E-34  -6.57926920892726E-10   7.09786187397333E-18   0.00000000000000E+00   0.00000000000000E+00
      0.00000000000000E+00   0.00000000000000E+00   0.00000000000000E+00   0.00000000000000E+00   0.00000000000000E+00
      4.17903635479501E-18   0.00000000000000E+00   0.00000000000000E+00   0.00000000000000E+00   0.00000000000000E+00
      1.83929430217215E-17  -1.46998303851133E-33   1.83929430217215E-17  -1.69695515241957E-17   8.88785386277484E-03
      8.88785375240881E-03   0.00000000000000E+00   0.00000000000000E+00   6.57926902499783E-10   6.34054416882803E-34
      6.57926902499783E-10   5.69265329542738E-18
      1.87757077255497E-01
      0.00000000000000E+00   1.14566068103479E-10   0.00000000000000E+00   0.00000000000000E+00  -6.83517320625715E-10
      8.38959319920473E-34  -6.83517320625715E-10   7.09754507198825E-18   0.00000000000000E+00   0.00000000000000E+00
      0.00000000000000E+00   0.00000000000000E+00   0.00000000000000E+00   0.00000000000000E+00   0.00000000000000E+00
      4.17282608113497E-18   0.00000000000000E+00   0.00000000000000E+00   0.00000000000000E+00   0.00000000000000E+00
      1.95132823731045E-17  -1.48985291296229E-33   1.95132823731045E-17  -1.69695183980452E-17   9.38785386277484E-03
      9.38785374811467E-03   0.00000000000000E+00   0.00000000000000E+00   6.83517301112433E-10   6.50893593041817E-34
      6.83517301112433E-10   5.69914724492197E-18
      1.97757077255497E-01
      0.00000000000000E+00   1.18692403728067E-10   0.00000000000000E+00   0.00000000000000E+00  -7.08125867065510E-10