DF-ISE text

Info {
  version   = 1.0
  type      = xyplot
  datasets  = [
    "time"
    "source OuterVoltage" "source InnerVoltage" "source QuasiFermiPotential" "source DisplacementCurrent" "source eCurrent"
    "source hCurrent" "source TotalCurrent" "source Charge" "gate OuterVoltage" "gate InnerVoltage"
    "gate QuasiFermiPotential" "gate DisplacementCurrent" "gate eCurrent" "gate hCurrent" "gate TotalCurrent"
    "gate Charge" "substrate OuterVoltage" "substrate InnerVoltage" "substrate QuasiFermiPotential" "substrate DisplacementCurrent"
    "substrate eCurrent" "substrate hCurrent" "substrate TotalCurrent" "substrate Charge" "drain OuterVoltage"
    "drain InnerVoltage" "drain QuasiFermiPotential" "drain DisplacementCurrent" "drain eCurrent" "drain hCurrent"
    "drain TotalCurrent" "drain Charge" ]
  functions = [
    Time
    OuterVoltage InnerVoltage QuasiFermiPotential DisplacementCurrent eCurrent
    hCurrent TotalCurrent Charge OuterVoltage InnerVoltage
    QuasiFermiPotential DisplacementCurrent eCurrent hCurrent TotalCurrent
    Charge OuterVoltage InnerVoltage QuasiFermiPotential DisplacementCurrent
    eCurrent hCurrent TotalCurrent Charge OuterVoltage
    InnerVoltage QuasiFermiPotential DisplacementCurrent eCurrent hCurrent
    TotalCurrent Charge ]
}

Data {
      0.00000000000000E+00
      0.00000000000000E+00   0.00000000000000E+00   0.00000000000000E+00   0.00000000000000E+00   1.49480667995754E-20
     -3.07459755330845E-34   1.49480667995751E-20   7.01345047177297E-18   0.00000000000000E+00   0.00000000000000E+00
      0.00000000000000E+00   0.00000000000000E+00   0.00000000000000E+00   0.00000000000000E+00   0.00000000000000E+00
      4.31298589727582E-18   0.00000000000000E+00   0.00000000000000E+00   0.00000000000000E+00   0.00000000000000E+00
     -1.27766690865829E-20   7.15481858869382E-34  -1.27766690865822E-20  -1.69761841020922E-17   0.00000000000000E+00
      0.00000000000000E+00   0.00000000000000E+00   0.00000000000000E+00  -2.17139771299250E-21  -4.08022103538536E-34
     -2.17139771299291E-21   5.64974773304341E-18
      0.00000000000000E+00
      0.00000000000000E+00   0.00000000000000E+00   0.00000000000000E+00   0.00000000000000E+00  -3.31801684586945E-18
     -3.12499679594221E-34  -3.31801684586945E-18   7.00852244660865E-18   0.00000000000000E+00   0.00000000000000E+00
      0.00000000000000E+00   0.00000000000000E+00   0.00000000000000E+00   0.00000000000000E+00   0.00000000000000E+00
      4.30325999462748E-18   0.00000000000000E+00   0.00000000000000E+00   0.00000000000000E+00   0.00000000000000E+00
      3.70226859519980E-18   7.63429889744200E-34   3.70226859519980E-18  -1.69574153483605E-17   0.00000000000000E+00
      0.00000000000000E+00   0.00000000000000E+00   0.00000000000000E+00  -3.84251749330354E-19  -4.50930210149980E-34
     -3.84251749330354E-19   5.64563290712443E-18
      1.00000000000000E-03
      0.00000000000000E+00   1.41947500569684E-11   0.00000000000000E+00   0.00000000000000E+00  -8.72526659709595E-11
     -3.44536876618862E-34  -8.72526659709595E-11   7.00798743838182E-18   0.00000000000000E+00   0.00000000000000E+00
      0.00000000000000E+00   0.00000000000000E+00   0.00000000000000E+00   0.00000000000000E+00   0.00000000000000E+00
      4.29229489896955E-18   0.00000000000000E+00   0.00000000000000E+00   0.00000000000000E+00   0.00000000000000E+00
      5.31257837043485E-19   7.56037588369670E-34   5.31257837043485E-19  -1.69572627814860E-17   8.60000000000000E-04
      8.59999985785979E-04   0.00000000000000E+00   0.00000000000000E+00   8.72526654397016E-11  -4.11500711750808E-34
      8.72526654397016E-11   5.65698044413463E-18
      2.08666666666667E-03
      0.00000000000000E+00   2.87385925180802E-11   0.00000000000000E+00   0.00000000000000E+00  -1.76647573408317E-10
     -3.19420613778556E-34  -1.76647573408317E-10   7.00740611628432E-18   0.00000000000000E+00   0.00000000000000E+00
      0.00000000000000E+00   0.00000000000000E+00   0.00000000000000E+00   0.00000000000000E+00   0.00000000000000E+00
      4.28038186153678E-18   0.00000000000000E+00   0.00000000000000E+00   0.00000000000000E+00   0.00000000000000E+00
      6.31225893969908E-16   7.17205265206504E-34   6.31225893969908E-16  -1.69571030531526E-17   1.79453333333333E-03
      1.79453330455573E-03   0.00000000000000E+00   0.00000000000000E+00   1.76646942182423E-10  -3.97784651427947E-34
      1.76646942182423E-10   5.66931507533153E-18
      3.28200000000000E-03
      0.00000000000000E+00   4.36937204333985E-11   0.00000000000000E+00   0.00000000000000E+00  -2.68563497807535E-10
     -3.19859735656714E-34  -2.68563497807535E-10   7.00676672554840E-18   0.00000000000000E+00   0.00000000000000E+00
      0.00000000000000E+00   0.00000000000000E+00   0.00000000000000E+00   0.00000000000000E+00   0.00000000000000E+00
      4.26728032230033E-18   0.00000000000000E+00   0.00000000000000E+00   0.00000000000000E+00   0.00000000000000E+00
      8.84629373790418E-16   7.12940092467740E-34   8.84629373790418E-16  -1.69569345533633E-17   2.82252000000000E-03
      2.82251995624744E-03   0.00000000000000E+00   0.00000000000000E+00   2.68562613178161E-10  -3.93080356811026E-34
      2.68562613178161E-10   5.68288750551450E-18
      4.59686666666667E-03
      0.00000000000000E+00   5.89345344080679E-11   0.00000000000000E+00   0.00000000000000E+00  -3.62227994047145E-10
     -3.45760975214556E-34  -3.62227994047145E-10   7.00606347139807E-18   0.00000000000000E+00   0.00000000000000E+00
      0.00000000000000E+00   0.00000000000000E+00   0.00000000000000E+00   0.00000000000000E+00   0.00000000000000E+00
      4.25287196106175E-18   0.00000000000000E+00   0.00000000000000E+00   0.00000000000000E+00   0.00000000000000E+00
      1.27940180959497E-15   7.16983134625658E-34   1.27940180959497E-15  -1.69567578001047E-17   3.95330533333333E-03
      3.95330527431999E-03   0.00000000000000E+00   0.00000000000000E+00   3.62226714645335E-10  -3.71222159411100E-34
      3.62226714645335E-10   5.69782236764485E-18
      6.04322000000000E-03
      0.00000000000000E+00   7.43177394848041E-11   0.00000000000000E+00   0.00000000000000E+00  -4.56759473534736E-10
     -3.08765165031196E-34  -4.56759473534736E-10   7.00528998160919E-18   0.00000000000000E+00   0.00000000000000E+00
      0.00000000000000E+00   0.00000000000000E+00   0.00000000000000E+00   0.00000000000000E+00   0.00000000000000E+00
      4.23702671914381E-18   0.00000000000000E+00   0.00000000000000E+00   0.00000000000000E+00   0.00000000000000E+00
      1.88730650029893E-15   6.81851733138154E-34   1.88730650029893E-15  -1.69565736200368E-17   5.19716920000000E-03
      5.19716912558357E-03   0.00000000000000E+00   0.00000000000000E+00   4.56757586228236E-10  -3.73086568106957E-34
      4.56757586228236E-10   5.71425691928386E-18
      7.63420866666667E-03
      0.00000000000000E+00   8.96816078109100E-11   0.00000000000000E+00   0.00000000000000E+00  -5.51161525859261E-10
     -3.23403526286049E-34  -5.51161525859261E-10   7.00443924905903E-18   0.00000000000000E+00   0.00000000000000E+00
      0.00000000000000E+00   0.00000000000000E+00   0.00000000000000E+00   0.00000000000000E+00   0.00000000000000E+00
      4.21960163979137E-18   0.00000000000000E+00   0.00000000000000E+00   0.00000000000000E+00   0.00000000000000E+00
     -1.85819015172550E-19   6.67846164093333E-34  -1.85819015172549E-19  -1.69563832222402E-17   6.56541945333333E-03
      6.56541936353386E-03   0.00000000000000E+00   0.00000000000000E+00   5.51161526045080E-10  -3.44442637807285E-34
      5.51161526045080E-10   5.73234233338990E-18
      9.37368960888889E-03
      0.00000000000000E+00   1.04761107663381E-10   0.00000000000000E+00   0.00000000000000E+00  -6.43809124672155E-10
     -3.21750722473094E-34  -6.43809124672155E-10   7.00350923896707E-18   0.00000000000000E+00   0.00000000000000E+00
      0.00000000000000E+00   0.00000000000000E+00   0.00000000000000E+00   0.00000000000000E+00   0.00000000000000E+00
      4.20055571111145E-18   0.00000000000000E+00   0.00000000000000E+00   0.00000000000000E+00   0.00000000000000E+00
     -2.72344039800872E-19   6.52321358291886E-34  -2.72344039800871E-19  -1.69561894221593E-17   8.06137306364445E-03
      8.06137295874660E-03   0.00000000000000E+00   0.00000000000000E+00   6.43809124944499E-10  -3.30570635818792E-34
      6.43809124944499E-10   5.75212447208081E-18
      1.12755221057185E-02
      0.00000000000000E+00   1.19381496275240E-10   0.00000000000000E+00   0.00000000000000E+00  -7.33627874253999E-10
     -3.11541492977390E-34  -7.33627874253999E-10   7.00249257219338E-18   0.00000000000000E+00   0.00000000000000E+00
      0.00000000000000E+00   0.00000000000000E+00   0.00000000000000E+00   0.00000000000000E+00   0.00000000000000E+00
      4.17973856352347E-18   0.00000000000000E+00   0.00000000000000E+00   0.00000000000000E+00   0.00000000000000E+00
     -4.26865269802760E-19   6.13010182651386E-34  -4.26865269802759E-19  -1.69559943778041E-17   9.69694901091793E-03
      9.69694889138166E-03   0.00000000000000E+00   0.00000000000000E+00   7.33627874680865E-10  -3.01468689673997E-34
      7.33627874680865E-10   5.77376324208730E-18
      1.33548589689189E-02
      0.00000000000000E+00   1.33365284121015E-10   0.00000000000000E+00   0.00000000000000E+00  -8.19529042153928E-10
     -2.91209323373543E-34  -8.19529042153928E-10   7.00138118358922E-18   0.00000000000000E+00   0.00000000000000E+00
      0.00000000000000E+00   0.00000000000000E+00   0.00000000000000E+00   0.00000000000000E+00   0.00000000000000E+00
      4.15698592629885E-18   0.00000000000000E+00   0.00000000000000E+00   0.00000000000000E+00   0.00000000000000E+00
     -3.30483264782810E-19   5.89119454338240E-34  -3.30483264782809E-19  -1.69558008403267E-17   1.14851787132703E-02
      1.14851785797332E-02   0.00000000000000E+00   0.00000000000000E+00   8.19529042484411E-10  -2.97910130964696E-34
      8.19529042484411E-10   5.79743373043866E-18
      1.56282672726847E-02
      0.00000000000000E+00   1.46538956749794E-10   0.00000000000000E+00   0.00000000000000E+00  -9.00449343172248E-10
     -3.33428234882864E-34  -9.00449343172248E-10   7.00016625817646E-18   0.00000000000000E+00   0.00000000000000E+00
      0.00000000000000E+00   0.00000000000000E+00   0.00000000000000E+00   0.00000000000000E+00   0.00000000000000E+00
      4.13211834438862E-18   0.00000000000000E+00   0.00000000000000E+00   0.00000000000000E+00   0.00000000000000E+00
     -1.02721875355834E-19   5.91076144707608E-34  -1.02721875355833E-19  -1.69556122610820E-17   1.34403098545088E-02
      1.34403097077823E-02   0.00000000000000E+00   0.00000000000000E+00   9.00449343274970E-10  -2.57647909824744E-34
      9.00449343274970E-10   5.82332765851688E-18
      1.81138603514686E-02
      0.00000000000000E+00   1.58741138237312E-10   0.00000000000000E+00   0.00000000000000E+00  -9.75401500228046E-10
     -3.17420168465016E-34  -9.75401500228046E-10   6.99883816134303E-18   0.00000000000000E+00   0.00000000000000E+00
      0.00000000000000E+00   0.00000000000000E+00   0.00000000000000E+00   0.00000000000000E+00   0.00000000000000E+00
      4.10493977565870E-18   0.00000000000000E+00   0.00000000000000E+00   0.00000000000000E+00   0.00000000000000E+00
      4.66277311184152E-19   5.70629666634196E-34   4.66277311184153E-19  -1.69554329129109E-17   1.55779199022630E-02
      1.55779197433196E-02   0.00000000000000E+00   0.00000000000000E+00   9.75401499761768E-10  -2.53209498169180E-34
      9.75401499761768E-10   5.85165497590921E-18
      2.08314421176057E-02
      0.00000000000000E+00   1.69832095399528E-10   0.00000000000000E+00   0.00000000000000E+00  -1.04353231006916E-09
     -2.97287607870001E-34  -1.04353231006916E-09   6.99738636247232E-18   0.00000000000000E+00   0.00000000000000E+00
      0.00000000000000E+00   0.00000000000000E+00   0.00000000000000E+00   0.00000000000000E+00   0.00000000000000E+00
      4.07523605674918E-18   0.00000000000000E+00   0.00000000000000E+00   0.00000000000000E+00   0.00000000000000E+00
     -2.21361330573004E-19   5.34582116506915E-34  -2.21361330573004E-19  -1.69552680262605E-17   1.79150402211409E-02
      1.79150400510933E-02   0.00000000000000E+00   0.00000000000000E+00   1.04353231029052E-09  -2.37294508636913E-34
      1.04353231029052E-09   5.88264560703907E-18
      2.38026648485822E-02
      0.00000000000000E+00   1.79704441567140E-10   0.00000000000000E+00   0.00000000000000E+00  -1.10418877211354E-09
     -3.29844632076590E-34  -1.10418877211354E-09   6.99579935136412E-18   0.00000000000000E+00   0.00000000000000E+00
      0.00000000000000E+00   0.00000000000000E+00   0.00000000000000E+00   0.00000000000000E+00   0.00000000000000E+00
      4.04277322392622E-18   0.00000000000000E+00   0.00000000000000E+00   0.00000000000000E+00   0.00000000000000E+00
      3.25798261903266E-19   5.43905037761388E-34   3.25798261903266E-19  -1.69551239400368E-17   2.04702917697807E-02
      2.04702915898490E-02   0.00000000000000E+00   0.00000000000000E+00   1.10418877178775E-09  -2.14060405684798E-34
      1.10418877178775E-09   5.91655136474653E-18
      2.70512017011165E-02
      0.00000000000000E+00   1.88294051946335E-10   0.00000000000000E+00   0.00000000000000E+00  -1.15698501198556E-09
     -2.94972322739500E-34  -1.15698501198556E-09   6.99406454675569E-18   0.00000000000000E+00   0.00000000000000E+00
      0.00000000000000E+00   0.00000000000000E+00   0.00000000000000E+00   0.00000000000000E+00   0.00000000000000E+00
      4.00729567479089E-18   0.00000000000000E+00   0.00000000000000E+00   0.00000000000000E+00   0.00000000000000E+00
     -4.27539858870024E-19   4.82893585188990E-34  -4.27539858870023E-19  -1.69550082673375E-17   2.32640334629602E-02
      2.32640332744287E-02   0.00000000000000E+00   0.00000000000000E+00   1.15698501241310E-09  -1.87921262449490E-34
      1.15698501241310E-09   5.95364804579093E-18
      3.06029353265541E-02
      0.00000000000000E+00   1.95590631342926E-10   0.00000000000000E+00   0.00000000000000E+00  -1.20186678045447E-09
     -3.22963133710066E-34  -1.20186678045447E-09   6.99216819619398E-18   0.00000000000000E+00   0.00000000000000E+00
      0.00000000000000E+00   0.00000000000000E+00   0.00000000000000E+00   0.00000000000000E+00   0.00000000000000E+00
      3.96852415559938E-18   0.00000000000000E+00   0.00000000000000E+00   0.00000000000000E+00   0.00000000000000E+00
     -7.96859946115956E-19   4.84282267792890E-34  -7.96859946115956E-19  -1.69549300772275E-17   2.63185243808365E-02
      2.63185241849998E-02   0.00000000000000E+00   0.00000000000000E+00   1.20186678125132E-09  -1.61319134082823E-34
      1.20186678125132E-09   5.99423772543415E-18
      3.44861640903658E-02
      0.00000000000000E+00   2.01646575891947E-10   0.00000000000000E+00   0.00000000000000E+00  -1.23916596341487E-09
     -3.28465657613011E-34  -1.23916596341487E-09   6.99009526641087E-18   0.00000000000000E+00   0.00000000000000E+00
      0.00000000000000E+00   0.00000000000000E+00   0.00000000000000E+00   0.00000000000000E+00   0.00000000000000E+00
      3.92615355437159E-18   0.00000000000000E+00   0.00000000000000E+00   0.00000000000000E+00   0.00000000000000E+00
     -1.88233050626554E-18   4.76937178450114E-34  -1.88233050626554E-18  -1.69549000887428E-17   2.96581011177146E-02
      2.96581009158150E-02   0.00000000000000E+00   0.00000000000000E+00   1.23916596529720E-09  -1.48471520837103E-34
      1.23916596529720E-09   6.03865126796026E-18
      3.87318275388000E-02
      0.00000000000000E+00   2.06582201769958E-10   0.00000000000000E+00   0.00000000000000E+00  -1.26963183613614E-09
     -3.17107883547563E-34  -1.26963183613614E-09   6.98782932332699E-18   0.00000000000000E+00   0.00000000000000E+00
      0.00000000000000E+00   0.00000000000000E+00   0.00000000000000E+00   0.00000000000000E+00   0.00000000000000E+00
      3.87985047926506E-18   0.00000000000000E+00   0.00000000000000E+00   0.00000000000000E+00   0.00000000000000E+00
     -7.88504690883497E-18   4.51007473597766E-34  -7.88504690883497E-18  -1.69549308743403E-17   3.33093716833680E-02
      3.33093714765276E-02   0.00000000000000E+00   0.00000000000000E+00   1.26963184402119E-09  -1.33899590050203E-34
      1.26963184402119E-09   6.08725107174827E-18
      4.33737529090880E-02
      0.00000000000000E+00   2.10583910446210E-10   0.00000000000000E+00   0.00000000000000E+00  -1.29441852408540E-09
     -3.11837873383964E-34  -1.29441852408540E-09   6.98535240084019E-18   0.00000000000000E+00   0.00000000000000E+00
      0.00000000000000E+00   0.00000000000000E+00   0.00000000000000E+00   0.00000000000000E+00   0.00000000000000E+00
      3.82925060494980E-18   0.00000000000000E+00   0.00000000000000E+00   0.00000000000000E+00   0.00000000000000E+00
     -1.33157620286884E-17   4.30571964957073E-34  -1.33157620286884E-17  -1.69550370762176E-17   3.73014275018156E-02
      3.73014272909708E-02   0.00000000000000E+00   0.00000000000000E+00   1.29441853740116E-09  -1.18734091573110E-34
      1.29441853740116E-09   6.14043407042763E-18
      4.84489246472695E-02
      0.00000000000000E+00   2.13892372470932E-10   0.00000000000000E+00   0.00000000000000E+00  -1.31501175790899E-09
     -3.05019351910314E-34  -1.31501175790899E-09   6.98264485735536E-18   0.00000000000000E+00   0.00000000000000E+00
      0.00000000000000E+00   0.00000000000000E+00   0.00000000000000E+00   0.00000000000000E+00   0.00000000000000E+00
      3.77395575955611E-18   0.00000000000000E+00   0.00000000000000E+00   0.00000000000000E+00   0.00000000000000E+00
     -2.03447544797684E-17   4.06243738411213E-34  -2.03447544797684E-17  -1.69552356267984E-17   4.16660751966518E-02
      4.16660749824983E-02   0.00000000000000E+00   0.00000000000000E+00   1.31501177825375E-09  -1.01224386500898E-34
      1.31501177825375E-09   6.19863500988696E-18
      5.39977790810147E-02
      0.00000000000000E+00   2.16779874872189E-10   0.00000000000000E+00   0.00000000000000E+00  -1.33308856422367E-09
     -3.06984600463988E-34  -1.33308856422367E-09   6.97968521919180E-18   0.00000000000000E+00   0.00000000000000E+00
      0.00000000000000E+00   0.00000000000000E+00   0.00000000000000E+00   0.00000000000000E+00   0.00000000000000E+00
      3.71353073549695E-18   0.00000000000000E+00   0.00000000000000E+00   0.00000000000000E+00   0.00000000000000E+00
     -2.60189732809746E-17   3.92923754343339E-34  -2.60189732809746E-17  -1.69555459805294E-17   4.64380900096726E-02
      4.64380897926349E-02   0.00000000000000E+00   0.00000000000000E+00   1.33308859024264E-09  -8.59391538793513E-35
      1.33308859024264E-09   6.26233002584053E-18
      6.00645265952427E-02
      0.00000000000000E+00   2.19518764763387E-10   0.00000000000000E+00   0.00000000000000E+00  -1.35032465550669E-09
     -3.28329596252656E-34  -1.35032465550669E-09   6.97645000994957E-18   0.00000000000000E+00   0.00000000000000E+00
      0.00000000000000E+00   0.00000000000000E+00   0.00000000000000E+00   0.00000000000000E+00   0.00000000000000E+00
      3.64749980311043E-18   0.00000000000000E+00   0.00000000000000E+00   0.00000000000000E+00   0.00000000000000E+00
     -3.19680346096497E-17   3.98027076112334E-34  -3.19680346096497E-17  -1.69559903589345E-17   5.16554928719087E-02
      5.16554926521397E-02   0.00000000000000E+00   0.00000000000000E+00   1.35032468747473E-09  -6.96974798596778E-35
      1.35032468747473E-09   6.33204054587441E-18
      6.66975038774654E-02
      0.00000000000000E+00   2.22341490874052E-10   0.00000000000000E+00   0.00000000000000E+00  -1.36814755722947E-09
     -3.19052856562572E-34  -1.36814755722947E-09   6.97291356492898E-18   0.00000000000000E+00   0.00000000000000E+00
      0.00000000000000E+00   0.00000000000000E+00   0.00000000000000E+00   0.00000000000000E+00   0.00000000000000E+00
      3.57534291188385E-18   0.00000000000000E+00   0.00000000000000E+00   0.00000000000000E+00   0.00000000000000E+00
      3.75551289983158E-19   3.77286160976032E-34   3.75551289983159E-19  -1.69565940198538E-17   5.73598533346202E-02
      5.73598531120411E-02   0.00000000000000E+00   0.00000000000000E+00   1.36814755685392E-09  -5.82333044134596E-35
      1.36814755685392E-09   6.40833754304104E-18
      7.39053391908140E-02
      0.00000000000000E+00   2.25385625032634E-10   0.00000000000000E+00   0.00000000000000E+00  -1.38739781577841E-09
     -3.17015710953014E-34  -1.38739781577841E-09   6.96907139745633E-18   0.00000000000000E+00   0.00000000000000E+00
      0.00000000000000E+00   0.00000000000000E+00   0.00000000000000E+00   0.00000000000000E+00   0.00000000000000E+00
      3.49697222656880E-18   0.00000000000000E+00   0.00000000000000E+00   0.00000000000000E+00   0.00000000000000E+00
      3.71289343165024E-19   3.65028548817878E-34   3.71289343165024E-19  -1.69573803195667E-17   6.35585917041000E-02
      6.35585914784946E-02   0.00000000000000E+00   0.00000000000000E+00   1.38739781540712E-09  -4.80128378648642E-35
      1.38739781540712E-09   6.49133669554162E-18
      8.17378535646528E-02
      0.00000000000000E+00   2.28735547660129E-10   0.00000000000000E+00   0.00000000000000E+00  -1.40859263972458E-09
     -3.11395449757309E-34  -1.40859263972458E-09   6.96489706384039E-18   0.00000000000000E+00   0.00000000000000E+00
      0.00000000000000E+00   0.00000000000000E+00   0.00000000000000E+00   0.00000000000000E+00   0.00000000000000E+00
      3.41185197420273E-18   0.00000000000000E+00   0.00000000000000E+00   0.00000000000000E+00   0.00000000000000E+00
      1.05511524606116E-19   3.48660197401786E-34   1.05511524606116E-19  -1.69583778967393E-17   7.02945540656014E-02
      7.02945538366701E-02   0.00000000000000E+00   0.00000000000000E+00   1.40859263961906E-09  -3.72647476444767E-35
      1.40859263961906E-09   6.58162885869612E-18
      9.02491858508910E-02
      0.00000000000000E+00   2.32442577218041E-10   0.00000000000000E+00   0.00000000000000E+00  -1.43205391917999E-09
     -3.04672772060505E-34  -1.43205391917999E-09   6.96036183001718E-18   0.00000000000000E+00   0.00000000000000E+00
      0.00000000000000E+00   0.00000000000000E+00   0.00000000000000E+00   0.00000000000000E+00   0.00000000000000E+00
      3.31939993825927E-18   0.00000000000000E+00   0.00000000000000E+00   0.00000000000000E+00   0.00000000000000E+00
     -1.55129070587060E-20   3.34371245012178E-34  -1.55129070587057E-20  -1.69596184822702E-17   7.76142998317663E-02
      7.76142995991578E-02   0.00000000000000E+00   0.00000000000000E+00   1.43205391919550E-09  -2.96984729516729E-35
      1.43205391919550E-09   6.67985671399380E-18
      9.94981669352699E-02
      0.00000000000000E+00   2.36531546978259E-10   0.00000000000000E+00   0.00000000000000E+00  -1.45794270680876E-09
     -3.41079301871340E-34  -1.45794270680876E-09   6.95543447591656E-18   0.00000000000000E+00   0.00000000000000E+00
      0.00000000000000E+00   0.00000000000000E+00   0.00000000000000E+00   0.00000000000000E+00   0.00000000000000E+00
      3.21898349020909E-18   0.00000000000000E+00   0.00000000000000E+00   0.00000000000000E+00   0.00000000000000E+00
      5.03118597240753E-19   3.63376517233056E-34   5.03118597240753E-19  -1.69611371677429E-17   8.55684235643321E-02
      8.55684233276693E-02   0.00000000000000E+00   0.00000000000000E+00   1.45794270630564E-09  -2.22972153617162E-35
      1.45794270630564E-09   6.78671920161717E-18
      1.09498166935270E-01
      0.00000000000000E+00   2.40991632137224E-10   0.00000000000000E+00   0.00000000000000E+00  -1.48620080890124E-09
     -3.13578649055497E-34  -1.48620080890124E-09   6.95010800501825E-18   0.00000000000000E+00   0.00000000000000E+00
      0.00000000000000E+00   0.00000000000000E+00   0.00000000000000E+00   0.00000000000000E+00   0.00000000000000E+00
      3.11046367710933E-18   0.00000000000000E+00   0.00000000000000E+00   0.00000000000000E+00   0.00000000000000E+00
      3.49622538874660E-19   3.29525233212173E-34   3.49622538874661E-19  -1.69629628106319E-17   9.41684235643321E-02
      9.41684233232489E-02   0.00000000000000E+00   0.00000000000000E+00   1.48620080855162E-09  -1.59465841566762E-35
      1.48620080855162E-09   6.90239112850439E-18
      1.19498166935270E-01
      0.00000000000000E+00   2.45485884396793E-10   0.00000000000000E+00   0.00000000000000E+00  -1.51469995504596E-09
     -3.23455299475780E-34  -1.51469995504596E-09   6.94478244985662E-18   0.00000000000000E+00   0.00000000000000E+00
      0.00000000000000E+00   0.00000000000000E+00   0.00000000000000E+00   0.00000000000000E+00   0.00000000000000E+00
      3.00199066900082E-18   0.00000000000000E+00   0.00000000000000E+00   0.00000000000000E+00   0.00000000000000E+00
      3.95136308092514E-19   3.35329080600170E-34   3.95136308092514E-19  -1.69649632489521E-17   1.02768423564332E-01
      1.02768423318799E-01   0.00000000000000E+00   0.00000000000000E+00   1.51469995465082E-09  -1.18737811243897E-35
      1.51469995465082E-09   7.01819013009477E-18
      1.29498166935270E-01
      0.00000000000000E+00   2.50023150894407E-10   0.00000000000000E+00   0.00000000000000E+00  -1.54349665637562E-09
     -3.19109296793840E-34  -1.54349665637562E-09   6.93945771070041E-18   0.00000000000000E+00   0.00000000000000E+00
      0.00000000000000E+00   0.00000000000000E+00   0.00000000000000E+00   0.00000000000000E+00   0.00000000000000E+00
      2.89355940931670E-18   0.00000000000000E+00   0.00000000000000E+00   0.00000000000000E+00   0.00000000000000E+00
     -7.01504663422993E-19   3.27755438126234E-34  -7.01504663422993E-19  -1.69671237080660E-17   1.11368423564332E-01
      1.11368423314311E-01   0.00000000000000E+00   0.00000000000000E+00   1.54349665707712E-09  -8.64614133239461E-36
      1.54349665707712E-09   7.13410658804885E-18
      1.39498166935270E-01
      0.00000000000000E+00   2.54612542713835E-10   0.00000000000000E+00   0.00000000000000E+00  -1.57264745469151E-09
     -3.05540813768921E-34  -1.57264745469151E-09   6.93413370179032E-18   0.00000000000000E+00   0.00000000000000E+00
      0.00000000000000E+00   0.00000000000000E+00   0.00000000000000E+00   0.00000000000000E+00   0.00000000000000E+00
      2.78516552621892E-18   0.00000000000000E+00   0.00000000000000E+00   0.00000000000000E+00   0.00000000000000E+00
      1.39841393275326E-19   3.12295666043760E-34   1.39841393275327E-19  -1.69694309570819E-17   1.19968423564332E-01
      1.19968423309771E-01   0.00000000000000E+00   0.00000000000000E+00   1.57264745455166E-09  -6.75485227483907E-36
      1.57264745455166E-09   7.25013172907270E-18
      1.49498166935270E-01
      0.00000000000000E+00   2.59259977832092E-10   0.00000000000000E+00   0.00000000000000E+00  -1.60218893511310E-09
     -3.28158628106683E-34  -1.60218893511310E-09   6.92881034958646E-18   0.00000000000000E+00   0.00000000000000E+00
      0.00000000000000E+00   0.00000000000000E+00   0.00000000000000E+00   0.00000000000000E+00   0.00000000000000E+00
      2.67680525063222E-18   0.00000000000000E+00   0.00000000000000E+00   0.00000000000000E+00   0.00000000000000E+00
     -2.05671063823195E-19   3.32933838482893E-34  -2.05671063823195E-19  -1.69718731411441E-17   1.28568423564332E-01
      1.28568423305170E-01   0.00000000000000E+00   0.00000000000000E+00   1.60218893531877E-09  -4.77521037621051E-36
      1.60218893531877E-09   7.36625754092546E-18
      1.59498166935270E-01
      0.00000000000000E+00   2.63968735192133E-10   0.00000000000000E+00   0.00000000000000E+00  -1.63214126908126E-09
     -3.34940165983711E-34  -1.63214126908126E-09   6.92348758841686E-18   0.00000000000000E+00   0.00000000000000E+00
      0.00000000000000E+00   0.00000000000000E+00   0.00000000000000E+00   0.00000000000000E+00   0.00000000000000E+00
      2.56847528302298E-18   0.00000000000000E+00   0.00000000000000E+00   0.00000000000000E+00   0.00000000000000E+00
      3.21482758417394E-19   3.38559743450921E-34   3.21482758417394E-19  -1.69744395593778E-17   1.37168423564332E-01
      1.37168423300505E-01   0.00000000000000E+00   0.00000000000000E+00   1.63214126875978E-09  -3.61957746720986E-36
      1.63214126875978E-09   7.48247668793793E-18
      1.69498166935270E-01
      0.00000000000000E+00   2.68740318644234E-10   0.00000000000000E+00   0.00000000000000E+00  -1.66251365191492E-09
     -3.08156130845886E-34  -1.66251365191492E-09   6.91816535849303E-18   0.00000000000000E+00   0.00000000000000E+00
      0.00000000000000E+00   0.00000000000000E+00   0.00000000000000E+00   0.00000000000000E+00   0.00000000000000E+00
      2.46017269640229E-18   0.00000000000000E+00   0.00000000000000E+00   0.00000000000000E+00   0.00000000000000E+00
     -5.25950887725051E-19   3.10979275258603E-34  -5.25950887725050E-19  -1.69771204960495E-17   1.45768423564332E-01
      1.45768423295777E-01   0.00000000000000E+00   0.00000000000000E+00   1.66251365244088E-09  -2.82314441271695E-36
      1.66251365244088E-09   7.59878244115414E-18
      1.79498166935270E-01
      0.00000000000000E+00   2.73575130331006E-10   0.00000000000000E+00   0.00000000000000E+00  -1.69330895958698E-09
     -2.98316681357431E-34  -1.69330895958698E-09   6.91284360542314E-18   0.00000000000000E+00   0.00000000000000E+00
      0.00000000000000E+00   0.00000000000000E+00   0.00000000000000E+00   0.00000000000000E+00   0.00000000000000E+00
      2.35189488153946E-18   0.00000000000000E+00   0.00000000000000E+00   0.00000000000000E+00   0.00000000000000E+00
      6.52104213762374E-19   3.00451299448845E-34   6.52104213762375E-19  -1.69799071070392E-17   1.54368423564332E-01
      1.54368423290987E-01   0.00000000000000E+00   0.00000000000000E+00   1.69330895893488E-09  -2.13461809141449E-36
      1.69330895893488E-09   7.71516862007658E-18
      1.89498166935270E-01
      0.00000000000000E+00   2.78473218749903E-10   0.00000000000000E+00   0.00000000000000E+00  -1.72452791745009E-09