DF-ISE text

Info {
  version   = 1.0
  type      = xyplot
  datasets  = [
    "time"
    "source OuterVoltage" "source InnerVoltage" "source QuasiFermiPotential" "source DisplacementCurrent" "source eCurrent"
    "source hCurrent" "source TotalCurrent" "source Charge" "gate OuterVoltage" "gate InnerVoltage"
    "gate QuasiFermiPotential" "gate DisplacementCurrent" "gate eCurrent" "gate hCurrent" "gate TotalCurrent"
    "gate Charge" "substrate OuterVoltage" "substrate InnerVoltage" "substrate QuasiFermiPotential" "substrate DisplacementCurrent"
    "substrate eCurrent" "substrate hCurrent" "substrate TotalCurrent" "substrate Charge" "drain OuterVoltage"
    "drain InnerVoltage" "drain QuasiFermiPotential" "drain DisplacementCurrent" "drain eCurrent" "drain hCurrent"
    "drain TotalCurrent" "drain Charge" ]
  functions = [
    Time
    OuterVoltage InnerVoltage QuasiFermiPotential DisplacementCurrent eCurrent
    hCurrent TotalCurrent Charge OuterVoltage InnerVoltage
    QuasiFermiPotential DisplacementCurrent eCurrent hCurrent TotalCurrent
    Charge OuterVoltage InnerVoltage QuasiFermiPotential DisplacementCurrent
    eCurrent hCurrent TotalCurrent Charge OuterVoltage
    InnerVoltage QuasiFermiPotential DisplacementCurrent eCurrent hCurrent
    TotalCurrent Charge ]
}

Data {
      0.00000000000000E+00
      0.00000000000000E+00   0.00000000000000E+00   0.00000000000000E+00   0.00000000000000E+00   1.27761087104014E-21
      1.07743201369062E-35   1.27761087104015E-21   5.90051295286200E-18   0.00000000000000E+00   0.00000000000000E+00
      0.00000000000000E+00   0.00000000000000E+00   0.00000000000000E+00   0.00000000000000E+00   0.00000000000000E+00
      2.20712792480248E-18   0.00000000000000E+00   0.00000000000000E+00   0.00000000000000E+00   0.00000000000000E+00
      2.54082587846207E-20   8.79332127646721E-35   2.54082587846208E-20  -1.46146995624091E-17   0.00000000000000E+00
      0.00000000000000E+00   0.00000000000000E+00   0.00000000000000E+00  -2.66858696556609E-20  -9.87075329015783E-35
     -2.66858696556610E-20   6.50705868474459E-18
      0.00000000000000E+00
      0.00000000000000E+00   0.00000000000000E+00   0.00000000000000E+00   0.00000000000000E+00  -2.99082156506003E-19
      2.74052257202768E-35  -2.99082156506003E-19   5.89628530830534E-18   0.00000000000000E+00   0.00000000000000E+00
      0.00000000000000E+00   0.00000000000000E+00   0.00000000000000E+00   0.00000000000000E+00   0.00000000000000E+00
      2.20017150738985E-18   0.00000000000000E+00   0.00000000000000E+00   0.00000000000000E+00   0.00000000000000E+00
      3.92526865414588E-18   1.99393328771247E-35   3.92526865414588E-18  -1.45995322297354E-17   0.00000000000000E+00
     -9.09353833737889E-19   0.00000000000000E+00   0.00000000000000E+00  -3.62618649763987E-18  -4.73445585974015E-35
     -3.62618649763987E-18   6.50307541404025E-18
      1.00000000000000E-03
      0.00000000000000E+00   1.64796148085323E-12   0.00000000000000E+00   0.00000000000000E+00  -9.45704651480233E-12
      2.99112042615320E-35  -9.45704651480233E-12   5.89624184812889E-18   0.00000000000000E+00   0.00000000000000E+00
      0.00000000000000E+00   0.00000000000000E+00   0.00000000000000E+00   0.00000000000000E+00   0.00000000000000E+00
      2.19940846484356E-18   0.00000000000000E+00   0.00000000000000E+00   0.00000000000000E+00   0.00000000000000E+00
     -5.62946018181132E-18   4.99132456034487E-35  -5.62946018181132E-18  -1.45995089100658E-17   5.00000000000000E-05
      4.99999983369609E-05   0.00000000000000E+00   0.00000000000000E+00   9.45705214426252E-12  -7.98244498649807E-35
      9.45705214426252E-12   6.50385859709332E-18
      2.09333333333333E-03
      0.00000000000000E+00   3.44415536611333E-12   0.00000000000000E+00   0.00000000000000E+00  -1.97646826437079E-11
     -2.13040536415241E-35  -1.97646826437079E-11   5.89619433199191E-18   0.00000000000000E+00   0.00000000000000E+00
      0.00000000000000E+00   0.00000000000000E+00   0.00000000000000E+00   0.00000000000000E+00   0.00000000000000E+00
      2.19857421422969E-18   0.00000000000000E+00   0.00000000000000E+00   0.00000000000000E+00   0.00000000000000E+00
     -3.47133840751321E-18   1.09494962836100E-34  -3.47133840751321E-18  -1.45994834342090E-17   1.04666666666667E-04
      1.04666663191010E-04   0.00000000000000E+00   0.00000000000000E+00   1.97646861150463E-11  -8.81909091945760E-35
      1.97646861150463E-11   6.50471488798737E-18
      3.29600000000000E-03
      0.00000000000000E+00   5.41294779175529E-12   0.00000000000000E+00   0.00000000000000E+00  -3.10628370865361E-11
      2.07063148898201E-35  -3.10628370865361E-11   5.89614206463167E-18   0.00000000000000E+00   0.00000000000000E+00
      0.00000000000000E+00   0.00000000000000E+00   0.00000000000000E+00   0.00000000000000E+00   0.00000000000000E+00
      2.19765654968898E-18   0.00000000000000E+00   0.00000000000000E+00   0.00000000000000E+00   0.00000000000000E+00
     -7.75257252195969E-19   4.21956000280301E-35  -7.75257252195969E-19  -1.45994554352583E-17   1.64800000000000E-04
      1.64799994537550E-04   0.00000000000000E+00   0.00000000000000E+00   3.10628378617933E-11  -6.29019149178502E-35
      3.10628378617933E-11   6.50565682093765E-18
      4.61893333333333E-03
      0.00000000000000E+00   7.56995463648899E-12   0.00000000000000E+00   0.00000000000000E+00  -4.34410441588087E-11
     -1.94179451710894E-35  -4.34410441588087E-11   5.89608457100868E-18   0.00000000000000E+00   0.00000000000000E+00
      0.00000000000000E+00   0.00000000000000E+00   0.00000000000000E+00   0.00000000000000E+00   0.00000000000000E+00
      2.19664713215486E-18   0.00000000000000E+00   0.00000000000000E+00   0.00000000000000E+00   0.00000000000000E+00
      2.19595830336169E-18   1.08001274863622E-34   2.19595830336169E-18  -1.45994246660239E-17   2.30946666666667E-04
      2.30946659027487E-04   0.00000000000000E+00   0.00000000000000E+00   4.34410419628503E-11  -8.85833296925321E-35
      4.34410419628503E-11   6.50669296286033E-18
      6.07416000000000E-03
      0.00000000000000E+00   9.93201304122299E-12   0.00000000000000E+00   0.00000000000000E+00  -5.69959535582868E-11
      1.24634062631216E-36  -5.69959535582868E-11   5.89602132859669E-18   0.00000000000000E+00   0.00000000000000E+00
      0.00000000000000E+00   0.00000000000000E+00   0.00000000000000E+00   0.00000000000000E+00   0.00000000000000E+00
      2.19553678913871E-18   0.00000000000000E+00   0.00000000000000E+00   0.00000000000000E+00   0.00000000000000E+00
     -2.58760748978141E-18   1.23938089443475E-34  -2.58760748978141E-18  -1.45993908556643E-17   3.03708000000000E-04
      3.03707989977172E-04   0.00000000000000E+00   0.00000000000000E+00   5.69959561458942E-11  -1.25184430069787E-34
      5.69959561458942E-11   6.50783273792892E-18
      7.67490933333333E-03
      0.00000000000000E+00   1.25172568854328E-11   0.00000000000000E+00   0.00000000000000E+00  -7.18315795175660E-11
      1.34324241858103E-36  -7.18315795175660E-11   5.89595176263760E-18   0.00000000000000E+00   0.00000000000000E+00
      0.00000000000000E+00   0.00000000000000E+00   0.00000000000000E+00   0.00000000000000E+00   0.00000000000000E+00
      2.19431543148805E-18   0.00000000000000E+00   0.00000000000000E+00   0.00000000000000E+00   0.00000000000000E+00
      3.89880136024315E-18   1.06387362460693E-34   3.89880136024315E-18  -1.45993537075429E-17   3.83745466666667E-04
      3.83745454034972E-04   0.00000000000000E+00   0.00000000000000E+00   7.18315756187646E-11  -1.07730604879274E-34
      7.18315756187646E-11   6.50908651341729E-18
      9.43573360000000E-03
      0.00000000000000E+00   1.53451217886069E-11   0.00000000000000E+00   0.00000000000000E+00  -8.80595297056493E-11
      2.25940476408560E-36  -8.80595297056493E-11   5.89587524092257E-18   0.00000000000000E+00   0.00000000000000E+00
      0.00000000000000E+00   0.00000000000000E+00   0.00000000000000E+00   0.00000000000000E+00   0.00000000000000E+00
      2.19297196184147E-18   0.00000000000000E+00   0.00000000000000E+00   0.00000000000000E+00   0.00000000000000E+00
      2.26086066548847E-18   1.06214031824099E-34   2.26086066548847E-18  -1.45993128969157E-17   4.71786680000000E-04
      4.71786664514591E-04   0.00000000000000E+00   0.00000000000000E+00   8.80595274447886E-11  -1.08473436588185E-34
      8.80595274447886E-11   6.51046569415173E-18
      1.13726402933333E-02
      0.00000000000000E+00   1.84364369549839E-11   0.00000000000000E+00   0.00000000000000E+00  -1.05799176886920E-10
      1.04993030566581E-35  -1.05799176886920E-10   5.89579106805242E-18   0.00000000000000E+00   0.00000000000000E+00
      0.00000000000000E+00   0.00000000000000E+00   0.00000000000000E+00   0.00000000000000E+00   0.00000000000000E+00
      2.19149417395326E-18   0.00000000000000E+00   0.00000000000000E+00   0.00000000000000E+00   0.00000000000000E+00
     -1.59016842719996E-20   6.66581660275753E-35  -1.59016842719996E-20  -1.45992680684426E-17   5.68632014666667E-04
      5.68631996061709E-04   0.00000000000000E+00   0.00000000000000E+00   1.05799176902822E-10  -7.71574690842334E-35
      1.05799176902822E-10   6.51198282643691E-18
      1.35032376560000E-02
      0.00000000000000E+00   2.18133533345999E-11   0.00000000000000E+00   0.00000000000000E+00  -1.25177739008749E-10
      4.05912527042530E-36  -1.25177739008749E-10   5.89569847912465E-18   0.00000000000000E+00   0.00000000000000E+00
      0.00000000000000E+00   0.00000000000000E+00   0.00000000000000E+00   0.00000000000000E+00   0.00000000000000E+00
      2.18986864198155E-18   0.00000000000000E+00   0.00000000000000E+00   0.00000000000000E+00   0.00000000000000E+00
      9.97991803398176E-19   9.10497580923381E-35   9.97991803398176E-19  -1.45992188335165E-17   6.75161882800000E-04
      6.75161860787283E-04   0.00000000000000E+00   0.00000000000000E+00   1.25177738010757E-10  -9.51088833627632E-35
      1.25177738010757E-10   6.51365171241022E-18
      1.58468947549333E-02
      0.00000000000000E+00   2.54994190996564E-11   0.00000000000000E+00   0.00000000000000E+00  -1.46330239773252E-10
      1.29661152339992E-35  -1.46330239773252E-10   5.89559663279076E-18   0.00000000000000E+00   0.00000000000000E+00
      0.00000000000000E+00   0.00000000000000E+00   0.00000000000000E+00   0.00000000000000E+00   0.00000000000000E+00
      2.18808059874036E-18   0.00000000000000E+00   0.00000000000000E+00   0.00000000000000E+00   0.00000000000000E+00
      1.83356965510459E-18   7.22282884853572E-35   1.83356965510459E-18  -1.45991647674048E-17   7.92344737746667E-04
      7.92344712014223E-04   0.00000000000000E+00   0.00000000000000E+00   1.46330237939682E-10  -8.51944037193565E-35
      1.46330237939682E-10   6.51548753587373E-18
      1.84249175637600E-02
      0.00000000000000E+00   2.95194928012294E-11   0.00000000000000E+00   0.00000000000000E+00  -1.69399319311657E-10
      1.52830088264501E-35  -1.69399319311657E-10   5.89548460362085E-18   0.00000000000000E+00   0.00000000000000E+00
      0.00000000000000E+00   0.00000000000000E+00   0.00000000000000E+00   0.00000000000000E+00   0.00000000000000E+00
      2.18611380182035E-18   0.00000000000000E+00   0.00000000000000E+00   0.00000000000000E+00   0.00000000000000E+00
      4.93898852531644E-18   7.50382827568979E-35   4.93898852531644E-18  -1.45991054062011E-17   9.21245878188001E-04
      9.21245848398792E-04   0.00000000000000E+00   0.00000000000000E+00   1.69399314372669E-10  -9.03212915833481E-35
      1.69399314372669E-10   6.51750700075992E-18
      2.12607426534693E-02
      0.00000000000000E+00   3.38997006296392E-11   0.00000000000000E+00   0.00000000000000E+00  -1.94534842172175E-10
     -1.07008907176426E-35  -1.94534842172175E-10   5.89536137370634E-18   0.00000000000000E+00   0.00000000000000E+00
      0.00000000000000E+00   0.00000000000000E+00   0.00000000000000E+00   0.00000000000000E+00   0.00000000000000E+00
      2.18395038637351E-18   0.00000000000000E+00   0.00000000000000E+00   0.00000000000000E+00   0.00000000000000E+00
      1.06009932416050E-18   6.57335404093277E-35   1.06009932416050E-18  -1.45990402435860E-17   1.06303713267347E-03
      1.06303709846409E-03   0.00000000000000E+00   0.00000000000000E+00   1.94534841112075E-10  -5.50326496916851E-35
      1.94534841112075E-10   6.51972848350610E-18
      2.43801502521496E-02
      0.00000000000000E+00   3.86673054674981E-11   0.00000000000000E+00   0.00000000000000E+00  -2.21893267838545E-10
     -1.65405466125177E-35  -2.21893267838545E-10   5.89522582342544E-18   0.00000000000000E+00   0.00000000000000E+00
      0.00000000000000E+00   0.00000000000000E+00   0.00000000000000E+00   0.00000000000000E+00   0.00000000000000E+00
      2.18157070323880E-18   0.00000000000000E+00   0.00000000000000E+00   0.00000000000000E+00   0.00000000000000E+00
      4.94567819829865E-18   8.02975874661067E-35   4.94567819829865E-18  -1.45989687274034E-17   1.21900751260748E-03
      1.21900747358700E-03   0.00000000000000E+00   0.00000000000000E+00   2.21893262892866E-10  -6.37570408535889E-35
      2.21893262892866E-10   6.52217220073913E-18
      2.78114986106979E-02
      0.00000000000000E+00   4.38505818535584E-11   0.00000000000000E+00   0.00000000000000E+00  -2.51636719874150E-10
      2.89523769729619E-35  -2.51636719874150E-10   5.89507672128755E-18   0.00000000000000E+00   0.00000000000000E+00
      0.00000000000000E+00   0.00000000000000E+00   0.00000000000000E+00   0.00000000000000E+00   0.00000000000000E+00
      2.17895314095519E-18   0.00000000000000E+00   0.00000000000000E+00   0.00000000000000E+00   0.00000000000000E+00
     -5.29836082442236E-19   6.81749040795997E-35  -5.29836082442236E-19  -1.45988902560605E-17   1.39057493053490E-03
      1.39057488628387E-03   0.00000000000000E+00   0.00000000000000E+00   2.51636720403986E-10  -9.71272810525616E-35
      2.51636720403986E-10   6.52486039381770E-18
      3.15859818051010E-02
      0.00000000000000E+00   4.94785554528394E-11   0.00000000000000E+00   0.00000000000000E+00  -2.83931702649823E-10
      4.50785066617649E-35  -2.83931702649823E-10   5.89491271276540E-18   0.00000000000000E+00   0.00000000000000E+00
      0.00000000000000E+00   0.00000000000000E+00   0.00000000000000E+00   0.00000000000000E+00   0.00000000000000E+00
      2.17607393006354E-18   0.00000000000000E+00   0.00000000000000E+00   0.00000000000000E+00   0.00000000000000E+00
      4.41644695931673E-18   4.77906571324625E-35   4.41644695931673E-18  -1.45988041747628E-17   1.57929909025505E-03
      1.57929904032475E-03   0.00000000000000E+00   0.00000000000000E+00   2.83931698233376E-10  -9.28691637942274E-35
      2.83931698233376E-10   6.52781753193389E-18
      3.57379133189445E-02
      0.00000000000000E+00   5.55807279770920E-11   0.00000000000000E+00   0.00000000000000E+00  -3.18947380623696E-10
     -1.84525331089398E-35  -3.18947380623696E-10   5.89473230801432E-18   0.00000000000000E+00   0.00000000000000E+00
      0.00000000000000E+00   0.00000000000000E+00   0.00000000000000E+00   0.00000000000000E+00   0.00000000000000E+00
      2.17290692794802E-18   0.00000000000000E+00   0.00000000000000E+00   0.00000000000000E+00   0.00000000000000E+00
      7.27802265586223E-18   1.07157374403069E-34   7.27802265586223E-18  -1.45987097716147E-17   1.78689566594722E-03
      1.78689560985915E-03   0.00000000000000E+00   0.00000000000000E+00   3.18947373345674E-10  -8.87048412941293E-35
      3.18947373345674E-10   6.53107053565234E-18
      4.03050379841723E-02
      0.00000000000000E+00   6.21866675208971E-11   0.00000000000000E+00   0.00000000000000E+00  -3.56853367015087E-10
      8.39184997649418E-36  -3.56853367015087E-10   5.89453386836746E-18   0.00000000000000E+00   0.00000000000000E+00
      0.00000000000000E+00   0.00000000000000E+00   0.00000000000000E+00   0.00000000000000E+00   0.00000000000000E+00
      2.16942338228519E-18   0.00000000000000E+00   0.00000000000000E+00   0.00000000000000E+00   0.00000000000000E+00
      9.83426684443988E-18   7.40869100367168E-35   9.83426684443988E-18  -1.45986062736076E-17   2.01525189920861E-03
      2.01525183645443E-03   0.00000000000000E+00   0.00000000000000E+00   3.56853357180820E-10  -8.24787600132109E-35
      3.56853357180820E-10   6.53464902295490E-18
      4.53288751159228E-02
      0.00000000000000E+00   6.93255484286256E-11   0.00000000000000E+00   0.00000000000000E+00  -3.97816913843364E-10
      3.25771190554147E-35  -3.97816913843364E-10   5.89431559148656E-18   0.00000000000000E+00   0.00000000000000E+00
      0.00000000000000E+00   0.00000000000000E+00   0.00000000000000E+00   0.00000000000000E+00   0.00000000000000E+00
      2.16559167099451E-18   0.00000000000000E+00   0.00000000000000E+00   0.00000000000000E+00   0.00000000000000E+00
      1.23124800542339E-17   5.09571271964646E-35   1.23124800542339E-17  -1.45984928425539E-17   2.26644375579614E-03
      2.26644368583809E-03   0.00000000000000E+00   0.00000000000000E+00   3.97816901530884E-10  -8.35342462518792E-35
      3.97816901530884E-10   6.53858558007285E-18
      5.08550959608485E-02
      0.00000000000000E+00   7.70255311151239E-11   0.00000000000000E+00   0.00000000000000E+00  -4.41999433110594E-10
      3.73857201674762E-35  -4.41999433110594E-10   5.89407549503352E-18   0.00000000000000E+00   0.00000000000000E+00
      0.00000000000000E+00   0.00000000000000E+00   0.00000000000000E+00   0.00000000000000E+00   0.00000000000000E+00
      2.16137701636195E-18   0.00000000000000E+00   0.00000000000000E+00   0.00000000000000E+00   0.00000000000000E+00
      1.73469567799866E-17   2.53699829629436E-35   1.73469567799866E-17  -1.45983685710128E-17   2.54275479804242E-03
      2.54275472031433E-03   0.00000000000000E+00   0.00000000000000E+00   4.41999415763637E-10  -6.27557031304198E-35
      4.41999415763637E-10   6.54291605961734E-18
      5.69339388902666E-02
      0.00000000000000E+00   8.53129968444624E-11   0.00000000000000E+00   0.00000000000000E+00  -4.89552220650922E-10
     -7.74397181106216E-36  -4.89552220650922E-10   5.89381139871762E-18   0.00000000000000E+00   0.00000000000000E+00
      0.00000000000000E+00   0.00000000000000E+00   0.00000000000000E+00   0.00000000000000E+00   0.00000000000000E+00
      2.15674117080245E-18   0.00000000000000E+00   0.00000000000000E+00   0.00000000000000E+00   0.00000000000000E+00
      2.11669336874867E-17   8.82042515418671E-35   2.11669336874867E-17  -1.45982324783086E-17   2.84669694451333E-03
      2.84669685842240E-03   0.00000000000000E+00   0.00000000000000E+00   4.89552199483988E-10  -8.04602797308049E-35
      4.89552199483988E-10   6.54767990878852E-18
      6.36206661126266E-02
      0.00000000000000E+00   9.42117183992397E-11   0.00000000000000E+00   0.00000000000000E+00  -5.40611395672846E-10
      2.68311428796001E-35  -5.40611395672846E-10   5.89352090455548E-18   0.00000000000000E+00   0.00000000000000E+00
      0.00000000000000E+00   0.00000000000000E+00   0.00000000000000E+00   0.00000000000000E+00   0.00000000000000E+00
      2.15164207144839E-18   0.00000000000000E+00   0.00000000000000E+00   0.00000000000000E+00   0.00000000000000E+00
      3.04815836122665E-17   6.65514712227233E-35   3.04815836122665E-17  -1.45980835067139E-17   3.18103330563133E-03
      3.18103321056080E-03   0.00000000000000E+00   0.00000000000000E+00   5.40611365191263E-10  -9.33826141023235E-35
      5.40611365191263E-10   6.55292053071002E-18
      7.09760660572226E-02
      0.00000000000000E+00   1.03741798409981E-10   0.00000000000000E+00   0.00000000000000E+00  -5.95292104886622E-10
      5.08241322358112E-36  -5.95292104886622E-10   5.89320137516504E-18   0.00000000000000E+00   0.00000000000000E+00
      0.00000000000000E+00   0.00000000000000E+00   0.00000000000000E+00   0.00000000000000E+00   0.00000000000000E+00
      2.14603346043063E-18   0.00000000000000E+00   0.00000000000000E+00   0.00000000000000E+00   0.00000000000000E+00
      6.52126690644975E-17   6.65805089475734E-35   6.52126690644975E-17  -1.45979205178283E-17   3.54880330286113E-03
      3.54880319817397E-03   0.00000000000000E+00   0.00000000000000E+00   5.95292039673952E-10  -7.16629221711545E-35
      5.95292039673952E-10   6.55868568223263E-18
      7.90670059962782E-02
      0.00000000000000E+00   1.13918437635372E-10   0.00000000000000E+00   0.00000000000000E+00  -6.53681240249056E-10
     -3.02942376810550E-35  -6.53681240249056E-10   5.89284990990733E-18   0.00000000000000E+00   0.00000000000000E+00
      0.00000000000000E+00   0.00000000000000E+00   0.00000000000000E+00   0.00000000000000E+00   0.00000000000000E+00
      2.13986446769068E-18   0.00000000000000E+00   0.00000000000000E+00   0.00000000000000E+00   0.00000000000000E+00
      6.08242130476363E-17   1.01617977045481E-34   6.08242130476363E-17  -1.45977422896174E-17   3.95335029981391E-03
      3.95335018485775E-03   0.00000000000000E+00   0.00000000000000E+00   6.53681179424843E-10  -7.13237393644258E-35
      6.53681179424843E-10   6.56502791201933E-18
      8.79670399292394E-02
      0.00000000000000E+00   1.24750541377505E-10   0.00000000000000E+00   0.00000000000000E+00  -7.15829827547477E-10
     -3.68718055552379E-36  -7.15829827547477E-10   5.89246331865188E-18   0.00000000000000E+00   0.00000000000000E+00
      0.00000000000000E+00   0.00000000000000E+00   0.00000000000000E+00   0.00000000000000E+00   0.00000000000000E+00
      2.13307915239051E-18   0.00000000000000E+00   0.00000000000000E+00   0.00000000000000E+00   0.00000000000000E+00
      8.20918131248778E-17   8.25243635852864E-35   8.20918131248778E-17  -1.45975475139474E-17   4.39835199646197E-03
      4.39835187057546E-03   0.00000000000000E+00   0.00000000000000E+00   7.15829745455664E-10  -7.88371830297626E-35
      7.15829745455664E-10   6.57200504290492E-18
      9.77570772554967E-02
      0.00000000000000E+00   1.36239268153166E-10   0.00000000000000E+00   0.00000000000000E+00  -7.81744058005899E-10
     -3.79068791385796E-35  -7.81744058005899E-10   5.89203809293499E-18   0.00000000000000E+00   0.00000000000000E+00
      0.00000000000000E+00   0.00000000000000E+00   0.00000000000000E+00   0.00000000000000E+00   0.00000000000000E+00
      2.12561599895968E-18   0.00000000000000E+00   0.00000000000000E+00   0.00000000000000E+00   0.00000000000000E+00
      1.21912506782115E-16   1.21627362770723E-34   1.21912506782115E-16  -1.45973347950005E-17   4.88785386277484E-03
      4.88785372529550E-03   0.00000000000000E+00   0.00000000000000E+00   7.81743936093393E-10  -8.37204836321436E-35
      7.81743936093393E-10   6.57968070310589E-18
      1.07757077255497E-01
      0.00000000000000E+00   1.47526535316470E-10   0.00000000000000E+00   0.00000000000000E+00  -8.46500855904762E-10
      3.43943507528612E-35  -8.46500855904762E-10   5.89160377405821E-18   0.00000000000000E+00   0.00000000000000E+00
      0.00000000000000E+00   0.00000000000000E+00   0.00000000000000E+00   0.00000000000000E+00   0.00000000000000E+00
      2.11799353137041E-18   0.00000000000000E+00   0.00000000000000E+00   0.00000000000000E+00   0.00000000000000E+00
      1.35269271433601E-16   5.78776545926211E-35   1.35269271433601E-16  -1.45971191631226E-17   5.38785386277483E-03
      5.38785371390604E-03   0.00000000000000E+00   0.00000000000000E+00   8.46500720635490E-10  -9.22720053454823E-35
      8.46500720635490E-10   6.58752185769394E-18
      1.17757077255497E-01
      0.00000000000000E+00   1.58375391629605E-10   0.00000000000000E+00   0.00000000000000E+00  -9.08740912836044E-10
      6.62458447501096E-36  -9.08740912836044E-10   5.89116948171752E-18   0.00000000000000E+00   0.00000000000000E+00
      0.00000000000000E+00   0.00000000000000E+00   0.00000000000000E+00   0.00000000000000E+00   0.00000000000000E+00
      2.11037181122347E-18   0.00000000000000E+00   0.00000000000000E+00   0.00000000000000E+00   0.00000000000000E+00
      9.61161494775160E-17   6.26529480602850E-35   9.61161494775160E-17  -1.45969051872064E-17   5.88785386277483E-03
      5.88785370295906E-03   0.00000000000000E+00   0.00000000000000E+00   9.08740816719895E-10  -6.92775325352960E-35
      9.08740816719895E-10   6.59536389426542E-18
      1.27757077255497E-01
      0.00000000000000E+00   1.68799990730318E-10   0.00000000000000E+00   0.00000000000000E+00  -9.68545697091888E-10
      2.19255175027538E-35  -9.68545697091888E-10   5.89073521569528E-18   0.00000000000000E+00   0.00000000000000E+00
      0.00000000000000E+00   0.00000000000000E+00   0.00000000000000E+00   0.00000000000000E+00   0.00000000000000E+00
      2.10275083323440E-18   0.00000000000000E+00   0.00000000000000E+00   0.00000000000000E+00   0.00000000000000E+00
      1.33705684291310E-16   5.18840012753281E-35   1.33705684291310E-16  -1.45966928565857E-17   6.38785386277483E-03
      6.38785369244025E-03   0.00000000000000E+00   0.00000000000000E+00   9.68545563386203E-10  -7.38095187780819E-35
      9.68545563386203E-10   6.60320680765591E-18
      1.37757077255497E-01
      0.00000000000000E+00   1.78814319844602E-10   0.00000000000000E+00   0.00000000000000E+00  -1.02599561209128E-09
      1.51903294275490E-35  -1.02599561209128E-09   5.89030097577403E-18   0.00000000000000E+00   0.00000000000000E+00
      0.00000000000000E+00   0.00000000000000E+00   0.00000000000000E+00   0.00000000000000E+00   0.00000000000000E+00
      2.09513059217917E-18   0.00000000000000E+00   0.00000000000000E+00   0.00000000000000E+00   0.00000000000000E+00
      1.34629361503528E-16   6.27190617757203E-35   1.34629361503528E-16  -1.45964821606969E-17   6.88785386277483E-03
      6.88785368233552E-03   0.00000000000000E+00   0.00000000000000E+00   1.02599547746192E-09  -7.79093912032693E-35
      1.02599547746192E-09   6.61105059274367E-18
      1.47757077255497E-01
      0.00000000000000E+00   1.88432126129038E-10   0.00000000000000E+00   0.00000000000000E+00  -1.08116977013809E-09
     -5.59189525399255E-36  -1.08116977013809E-09   5.88986676173385E-18   0.00000000000000E+00   0.00000000000000E+00
      0.00000000000000E+00   0.00000000000000E+00   0.00000000000000E+00   0.00000000000000E+00   0.00000000000000E+00
      2.08751108284189E-18   0.00000000000000E+00   0.00000000000000E+00   0.00000000000000E+00   0.00000000000000E+00
     -2.97542890790312E-18   7.73029799515718E-35  -2.97542890790312E-18  -1.45962730889979E-17   7.38785386277483E-03
      7.38785367263096E-03   0.00000000000000E+00   0.00000000000000E+00   1.08116977311352E-09  -7.17110846975792E-35
      1.08116977311352E-09   6.61889524442217E-18
      1.57757077255497E-01
      0.00000000000000E+00   1.97666987600395E-10   0.00000000000000E+00   0.00000000000000E+00  -1.13414612561072E-09
      5.00834426409757E-36  -1.13414612561072E-09   5.88943257335740E-18   0.00000000000000E+00   0.00000000000000E+00
      0.00000000000000E+00   0.00000000000000E+00   0.00000000000000E+00   0.00000000000000E+00   0.00000000000000E+00
      2.07989230009511E-18   0.00000000000000E+00   0.00000000000000E+00   0.00000000000000E+00   0.00000000000000E+00
      1.31266712731717E-16   3.94036630924974E-35   1.31266712731717E-16  -1.45960656310853E-17   7.88785386277484E-03
      7.88785366331290E-03   0.00000000000000E+00   0.00000000000000E+00   1.13414599434401E-09  -4.44120073565950E-35
      1.13414599434401E-09   6.62674075763270E-18
      1.67757077255497E-01
      0.00000000000000E+00   2.06532059880585E-10   0.00000000000000E+00   0.00000000000000E+00  -1.18500050606430E-09
      3.67973842187077E-35  -1.18500050606430E-09   5.88899841042542E-18   0.00000000000000E+00   0.00000000000000E+00
      0.00000000000000E+00   0.00000000000000E+00   0.00000000000000E+00   0.00000000000000E+00   0.00000000000000E+00
      2.07227423881640E-18   0.00000000000000E+00   0.00000000000000E+00   0.00000000000000E+00   0.00000000000000E+00
      1.28845719950095E-16   3.51223879614564E-35   1.28845719950095E-16  -1.45958597765908E-17   8.38785386277484E-03
      8.38785365436802E-03   0.00000000000000E+00   0.00000000000000E+00   1.18500037721858E-09  -7.19197721801642E-35
      1.18500037721858E-09   6.63458712734890E-18
      1.77757077255497E-01
      0.00000000000000E+00   2.15040338090570E-10   0.00000000000000E+00   0.00000000000000E+00  -1.23380750854091E-09
      2.41158207778505E-35  -1.23380750854091E-09   5.88856427271826E-18   0.00000000000000E+00   0.00000000000000E+00
      0.00000000000000E+00   0.00000000000000E+00   0.00000000000000E+00   0.00000000000000E+00   0.00000000000000E+00
      2.06465689389050E-18   0.00000000000000E+00   0.00000000000000E+00   0.00000000000000E+00   0.00000000000000E+00
      1.01099753055531E-16   4.51897992588131E-35   1.01099753055531E-16  -1.45956555151587E-17   8.88785386277484E-03
      8.88785364578323E-03   0.00000000000000E+00   0.00000000000000E+00   1.23380740744116E-09  -6.93056200366636E-35
      1.23380740744116E-09   6.64243434854996E-18
      1.87757077255497E-01
      0.00000000000000E+00   2.23204444061562E-10   0.00000000000000E+00   0.00000000000000E+00  -1.28063977470841E-09
      1.12373002643597E-35  -1.28063977470841E-09   5.88813016001712E-18   0.00000000000000E+00   0.00000000000000E+00
      0.00000000000000E+00   0.00000000000000E+00   0.00000000000000E+00   0.00000000000000E+00   0.00000000000000E+00
      2.05704026026328E-18   0.00000000000000E+00   0.00000000000000E+00   0.00000000000000E+00   0.00000000000000E+00
      1.69980166347147E-16   4.38573247448301E-35   1.69980166347147E-16  -1.45954528365379E-17   9.38785386277484E-03
      9.38785363754584E-03   0.00000000000000E+00   0.00000000000000E+00   1.28063960472824E-09  -5.50946250091898E-35
      1.28063960472824E-09   6.65028241625753E-18
      1.97757077255497E-01
      0.00000000000000E+00   2.31036704084778E-10   0.00000000000000E+00   0.00000000000000E+00  -1.32556820307533E-09