DF-ISE text

Info {
  version   = 1.0
  type      = xyplot
  datasets  = [
    "time"
    "source OuterVoltage" "source InnerVoltage" "source QuasiFermiPotential" "source DisplacementCurrent" "source eCurrent"
    "source hCurrent" "source TotalCurrent" "source Charge" "gate OuterVoltage" "gate InnerVoltage"
    "gate QuasiFermiPotential" "gate DisplacementCurrent" "gate eCurrent" "gate hCurrent" "gate TotalCurrent"
    "gate Charge" "substrate OuterVoltage" "substrate InnerVoltage" "substrate QuasiFermiPotential" "substrate DisplacementCurrent"
    "substrate eCurrent" "substrate hCurrent" "substrate TotalCurrent" "substrate Charge" "drain OuterVoltage"
    "drain InnerVoltage" "drain QuasiFermiPotential" "drain DisplacementCurrent" "drain eCurrent" "drain hCurrent"
    "drain TotalCurrent" "drain Charge" ]
  functions = [
    Time
    OuterVoltage InnerVoltage QuasiFermiPotential DisplacementCurrent eCurrent
    hCurrent TotalCurrent Charge OuterVoltage InnerVoltage
    QuasiFermiPotential DisplacementCurrent eCurrent hCurrent TotalCurrent
    Charge OuterVoltage InnerVoltage QuasiFermiPotential DisplacementCurrent
    eCurrent hCurrent TotalCurrent Charge OuterVoltage
    InnerVoltage QuasiFermiPotential DisplacementCurrent eCurrent hCurrent
    TotalCurrent Charge ]
}

Data {
      0.00000000000000E+00
      0.00000000000000E+00   0.00000000000000E+00   0.00000000000000E+00   0.00000000000000E+00   2.65568239533288E-19
      1.58119535093249E-34   2.65568239533289E-19   7.17299679658638E-18   0.00000000000000E+00   0.00000000000000E+00
      0.00000000000000E+00   0.00000000000000E+00   0.00000000000000E+00   0.00000000000000E+00   0.00000000000000E+00
      3.80156917828458E-18   0.00000000000000E+00   0.00000000000000E+00   0.00000000000000E+00   0.00000000000000E+00
     -2.64751085987748E-19  -2.88842427630632E-34  -2.64751085987749E-19  -1.64006348322249E-17   0.00000000000000E+00
      0.00000000000000E+00   0.00000000000000E+00   0.00000000000000E+00  -8.17153545539891E-22   1.30722892537383E-34
     -8.17153545539760E-22   5.42606885735393E-18
      0.00000000000000E+00
      0.00000000000000E+00   0.00000000000000E+00   0.00000000000000E+00   0.00000000000000E+00  -9.45101880960432E-18
      1.60740554300582E-34  -9.45101880960432E-18   7.16805211997218E-18   0.00000000000000E+00   0.00000000000000E+00
      0.00000000000000E+00   0.00000000000000E+00   0.00000000000000E+00   0.00000000000000E+00   0.00000000000000E+00
      3.79225526060579E-18   0.00000000000000E+00   0.00000000000000E+00   0.00000000000000E+00   0.00000000000000E+00
      9.74234389574027E-18  -2.93466918607690E-34   9.74234389574027E-18  -1.63823550601278E-17   0.00000000000000E+00
      0.00000000000000E+00   0.00000000000000E+00   0.00000000000000E+00  -2.91325086135949E-19   1.32726364307108E-34
     -2.91325086135949E-19   5.42204767954983E-18
      1.00000000000000E-03
      0.00000000000000E+00   9.15359758017238E-12   0.00000000000000E+00   0.00000000000000E+00  -5.58611452933658E-11
      2.34620601906923E-34  -5.58611452933658E-11   7.16776070811748E-18   0.00000000000000E+00   0.00000000000000E+00
      0.00000000000000E+00   0.00000000000000E+00   0.00000000000000E+00   0.00000000000000E+00   0.00000000000000E+00
      3.78693658513910E-18   0.00000000000000E+00   0.00000000000000E+00   0.00000000000000E+00   0.00000000000000E+00
      1.84595184007653E-18  -3.52030185543989E-34   1.84595184007653E-18  -1.63822925636414E-17   4.30000000000000E-04
      4.29999990854371E-04   0.00000000000000E+00   0.00000000000000E+00   5.58611434474139E-11   1.17409583637066E-34
      5.58611434474139E-11   5.42759527038488E-18
      2.08666666666667E-03
      0.00000000000000E+00   1.88177167071989E-11   0.00000000000000E+00   0.00000000000000E+00  -1.14836787302508E-10
      1.56527391149121E-34  -1.14836787302508E-10   7.16744405701471E-18   0.00000000000000E+00   0.00000000000000E+00
      0.00000000000000E+00   0.00000000000000E+00   0.00000000000000E+00   0.00000000000000E+00   0.00000000000000E+00
      3.78115757089298E-18   0.00000000000000E+00   0.00000000000000E+00   0.00000000000000E+00   0.00000000000000E+00
      3.51963273062831E-17  -2.61003182467804E-34   3.51963273062831E-17  -1.63822261611125E-17   8.97266666666667E-04
      8.97266647865375E-04   0.00000000000000E+00   0.00000000000000E+00   1.14836752106181E-10   1.04475791318684E-34
      1.14836752106181E-10   5.43362453320474E-18
      3.28200000000000E-03
      0.00000000000000E+00   2.91031268551430E-11   0.00000000000000E+00   0.00000000000000E+00  -1.77601788602011E-10
      1.81775838542683E-34  -1.77601788602011E-10   7.16709576051820E-18   0.00000000000000E+00   0.00000000000000E+00
      0.00000000000000E+00   0.00000000000000E+00   0.00000000000000E+00   0.00000000000000E+00   0.00000000000000E+00
      3.77480138693534E-18   0.00000000000000E+00   0.00000000000000E+00   0.00000000000000E+00   0.00000000000000E+00
      5.35275524394454E-17  -2.93953659021022E-34   5.35275524394454E-17  -1.63821549236228E-17   1.41126000000000E-03
      1.41125997092244E-03   0.00000000000000E+00   0.00000000000000E+00   1.77601735074459E-10   1.12177820478340E-34
      1.77601735074459E-10   5.44025777616924E-18
      4.59686666666667E-03
      0.00000000000000E+00   4.00025976114451E-11   0.00000000000000E+00   0.00000000000000E+00  -2.44111538899661E-10
      1.63075112773919E-34  -2.44111538899661E-10   7.16671265807867E-18   0.00000000000000E+00   0.00000000000000E+00
      0.00000000000000E+00   0.00000000000000E+00   0.00000000000000E+00   0.00000000000000E+00   0.00000000000000E+00
      3.76781046230673E-18   0.00000000000000E+00   0.00000000000000E+00   0.00000000000000E+00   0.00000000000000E+00
      7.33064020096945E-17  -2.78499212067215E-34   7.33064020096945E-17  -1.63820787316027E-17   1.97665266666667E-03
      1.97665262669945E-03   0.00000000000000E+00   0.00000000000000E+00   2.44111465593259E-10   1.15424099293297E-34
      2.44111465593259E-10   5.44755561121733E-18
      6.04322000000000E-03
      0.00000000000000E+00   5.14996578671121E-11   0.00000000000000E+00   0.00000000000000E+00  -3.14264731545002E-10
      1.86951602123541E-34  -3.14264731545002E-10   7.16629127384946E-18   0.00000000000000E+00   0.00000000000000E+00
      0.00000000000000E+00   0.00000000000000E+00   0.00000000000000E+00   0.00000000000000E+00   0.00000000000000E+00
      3.76012149720170E-18   0.00000000000000E+00   0.00000000000000E+00   0.00000000000000E+00   0.00000000000000E+00
      1.01144642176153E-16  -3.27145217262532E-34   1.01144642176153E-16  -1.63819975251394E-17   2.59858460000000E-03
      2.59858454854622E-03   0.00000000000000E+00   0.00000000000000E+00   3.14264630400360E-10   1.40193615138991E-34
      3.14264630400360E-10   5.45558475408835E-18
      7.63420866666667E-03
      0.00000000000000E+00   6.35662816726841E-11   0.00000000000000E+00   0.00000000000000E+00  -3.87889611989710E-10
      1.53275177031277E-34  -3.87889611989710E-10   7.16582778529795E-18   0.00000000000000E+00   0.00000000000000E+00
      0.00000000000000E+00   0.00000000000000E+00   0.00000000000000E+00   0.00000000000000E+00   0.00000000000000E+00
      3.75166489526190E-18   0.00000000000000E+00   0.00000000000000E+00   0.00000000000000E+00   0.00000000000000E+00
      1.40758145851248E-16  -2.48894525404391E-34   1.40758145851248E-16  -1.63819113234552E-17   3.28270972666667E-03
      3.28270966315743E-03   0.00000000000000E+00   0.00000000000000E+00   3.87889471231564E-10   9.56193483731133E-35
      3.87889471231564E-10   5.46441864289535E-18
      9.38429620000000E-03
      0.00000000000000E+00   7.61609316019876E-11   0.00000000000000E+00   0.00000000000000E+00  -4.64732024360706E-10
      1.38645949574720E-34  -4.64732024360706E-10   7.16531798869687E-18   0.00000000000000E+00   0.00000000000000E+00
      0.00000000000000E+00   0.00000000000000E+00   0.00000000000000E+00   0.00000000000000E+00   0.00000000000000E+00
      3.74236413994132E-18   0.00000000000000E+00   0.00000000000000E+00   0.00000000000000E+00   0.00000000000000E+00
      2.05654371073436E-16  -2.40269767185314E-34   2.05654371073436E-16  -1.63818202486855E-17   4.03524736600000E-03
      4.03524728990796E-03   0.00000000000000E+00   0.00000000000000E+00   4.64731818706335E-10   1.01623817610595E-34
      4.64731818706335E-10   5.47413812004730E-18
      1.13093924866667E-02
      0.00000000000000E+00   8.92267948181634E-11   0.00000000000000E+00   0.00000000000000E+00  -5.44444520198681E-10
      1.61609246047321E-34  -5.44444520198681E-10   7.16475726118864E-18   0.00000000000000E+00   0.00000000000000E+00
      0.00000000000000E+00   0.00000000000000E+00   0.00000000000000E+00   0.00000000000000E+00   0.00000000000000E+00
      3.73213510949048E-18   0.00000000000000E+00   0.00000000000000E+00   0.00000000000000E+00   0.00000000000000E+00
      2.96676825465822E-16  -2.50727751140287E-34   2.96676825465822E-16  -1.63817245547772E-17   4.86303876926667E-03
      4.86303868012125E-03   0.00000000000000E+00   0.00000000000000E+00   5.44444223521855E-10   8.91185050929661E-35
      5.44444223521855E-10   5.48483218409809E-18
      1.34269984020000E-02
      0.00000000000000E+00   1.02690192958007E-10   0.00000000000000E+00   0.00000000000000E+00  -6.26577059394255E-10
      1.73146731216869E-34  -6.26577059394255E-10   7.16414051908159E-18   0.00000000000000E+00   0.00000000000000E+00
      0.00000000000000E+00   0.00000000000000E+00   0.00000000000000E+00   0.00000000000000E+00   0.00000000000000E+00
      3.72088532454002E-18   0.00000000000000E+00   0.00000000000000E+00   0.00000000000000E+00   0.00000000000000E+00
      3.96705092810554E-16  -2.55094077166642E-34   3.96705092810554E-16  -1.63816246624220E-17   5.77360931286000E-03
      5.77360921026425E-03   0.00000000000000E+00   0.00000000000000E+00   6.26576662689163E-10   8.19473459497737E-35
      6.26576662689163E-10   5.49659881880032E-18
      1.57563649088667E-02
      0.00000000000000E+00   1.16459514758781E-10   0.00000000000000E+00   0.00000000000000E+00  -7.10570158024438E-10
      1.51371716282446E-34  -7.10570158024438E-10   7.16346217200116E-18   0.00000000000000E+00   0.00000000000000E+00
      0.00000000000000E+00   0.00000000000000E+00   0.00000000000000E+00   0.00000000000000E+00   0.00000000000000E+00
      3.70851312154411E-18   0.00000000000000E+00   0.00000000000000E+00   0.00000000000000E+00   0.00000000000000E+00
      6.11084401887057E-16  -2.55357429678684E-34   6.11084401887057E-16  -1.63815212008526E-17   6.77523691081267E-03
      6.77523679446122E-03   0.00000000000000E+00   0.00000000000000E+00   7.10569546940035E-10   1.03985713396237E-34
      7.10569546940035E-10   5.50954590730728E-18
      1.83186680664200E-02
      0.00000000000000E+00   1.30424640955663E-10   0.00000000000000E+00   0.00000000000000E+00  -7.95751818133866E-10
      1.39508735819408E-34  -7.95751818133866E-10   7.16271607248127E-18   0.00000000000000E+00   0.00000000000000E+00
      0.00000000000000E+00   0.00000000000000E+00   0.00000000000000E+00   0.00000000000000E+00   0.00000000000000E+00
      3.69490674480231E-18   0.00000000000000E+00   0.00000000000000E+00   0.00000000000000E+00   0.00000000000000E+00
      8.72911363564135E-16  -2.16794395432635E-34   8.72911363564135E-16  -1.63814150577098E-17   7.87702726856060E-03
      7.87702713825806E-03   0.00000000000000E+00   0.00000000000000E+00   7.95750945222503E-10   7.72856596132271E-35
      7.95750945222503E-10   5.52379224042611E-18
      2.11372015397287E-02
      0.00000000000000E+00   1.44457105653795E-10   0.00000000000000E+00   0.00000000000000E+00  -8.81338728610025E-10
      1.73307527411946E-34  -8.81338728610025E-10   7.16189546055028E-18   0.00000000000000E+00   0.00000000000000E+00
      0.00000000000000E+00   0.00000000000000E+00   0.00000000000000E+00   0.00000000000000E+00   0.00000000000000E+00
      3.67994334927733E-18   0.00000000000000E+00   0.00000000000000E+00   0.00000000000000E+00   0.00000000000000E+00
      1.24073549814998E-15  -2.60970682232230E-34   1.24073549814998E-15  -1.63813074385829E-17   9.08899666208333E-03
      9.08899651776264E-03   0.00000000000000E+00   0.00000000000000E+00   8.81337487874527E-10   8.76631548202838E-35
      8.81337487874527E-10   5.53946862875534E-18
      2.42375883603682E-02
      0.00000000000000E+00   1.58411150826051E-10   0.00000000000000E+00   0.00000000000000E+00  -9.66441255639426E-10
      1.56244557150811E-34  -9.66441255639426E-10   7.16099290279536E-18   0.00000000000000E+00   0.00000000000000E+00
      0.00000000000000E+00   0.00000000000000E+00   0.00000000000000E+00   0.00000000000000E+00   0.00000000000000E+00
      3.66348790499905E-18   0.00000000000000E+00   0.00000000000000E+00   0.00000000000000E+00   0.00000000000000E+00
      2.43798984035161E-18  -2.41890566752446E-34   2.43798984035161E-18  -1.63811999371436E-17   1.04221629949583E-02
      1.04221628366983E-02   0.00000000000000E+00   0.00000000000000E+00   9.66441253201436E-10   8.56460096016339E-35
      9.66441253201436E-10   5.55671912934929E-18
      2.76273446176008E-02
      0.00000000000000E+00   1.72048935083447E-10   0.00000000000000E+00   0.00000000000000E+00  -1.04961221503489E-09
      1.75549295232524E-34  -1.04961221503489E-09   7.16000624117346E-18   0.00000000000000E+00   0.00000000000000E+00
      0.00000000000000E+00   0.00000000000000E+00   0.00000000000000E+00   0.00000000000000E+00   0.00000000000000E+00
      3.64550164992777E-18   0.00000000000000E+00   0.00000000000000E+00   0.00000000000000E+00   0.00000000000000E+00
      2.84377959785498E-18  -2.48021163705483E-34   2.84377959785498E-18  -1.63810952156704E-17   1.18797581855683E-02
      1.18797580136849E-02   0.00000000000000E+00   0.00000000000000E+00   1.04961221219111E-09   7.24718684729582E-35
      1.04961221219111E-09   5.57558732456920E-18
      3.13334781255084E-02
      0.00000000000000E+00   1.85215783734087E-10   0.00000000000000E+00   0.00000000000000E+00  -1.12990961790300E-09
      1.95566684079467E-34  -1.12990961790300E-09   7.15892764785604E-18   0.00000000000000E+00   0.00000000000000E+00
      0.00000000000000E+00   0.00000000000000E+00   0.00000000000000E+00   0.00000000000000E+00   0.00000000000000E+00
      3.62584254574055E-18   0.00000000000000E+00   0.00000000000000E+00   0.00000000000000E+00   0.00000000000000E+00
      3.37669485672004E-19  -2.72233446169583E-34   3.37669485672004E-19  -1.63809957418080E-17   1.34733955939686E-02
      1.34733954089324E-02   0.00000000000000E+00   0.00000000000000E+00   1.12990961756534E-09   7.66667620901162E-35
      1.12990961756534E-09   5.59622554821146E-18
      3.53855174274873E-02
      0.00000000000000E+00   1.97756553420407E-10   0.00000000000000E+00   0.00000000000000E+00  -1.20639050729953E-09
      1.81819144870430E-34  -1.20639050729953E-09   7.15774856741503E-18   0.00000000000000E+00   0.00000000000000E+00
      0.00000000000000E+00   0.00000000000000E+00   0.00000000000000E+00   0.00000000000000E+00   0.00000000000000E+00
      3.60435542081001E-18   0.00000000000000E+00   0.00000000000000E+00   0.00000000000000E+00   0.00000000000000E+00
     -1.46380597842230E-18  -2.55547167092990E-34  -1.46380597842230E-18  -1.63809045625708E-17   1.52157724938196E-02
      1.52157722962560E-02   0.00000000000000E+00   0.00000000000000E+00   1.20639050876334E-09   7.37280222225606E-35
      1.20639050876334E-09   5.61880057434566E-18
      3.98157470643177E-02
      0.00000000000000E+00   2.09522301592146E-10   0.00000000000000E+00   0.00000000000000E+00  -1.27815098378092E-09
      1.44362901724569E-34  -1.27815098378092E-09   7.15645964915625E-18   0.00000000000000E+00   0.00000000000000E+00
      0.00000000000000E+00   0.00000000000000E+00   0.00000000000000E+00   0.00000000000000E+00   0.00000000000000E+00
      3.58087075795544E-18   0.00000000000000E+00   0.00000000000000E+00   0.00000000000000E+00   0.00000000000000E+00
     -1.41595342085076E-18  -2.04506997913956E-34  -1.41595342085076E-18  -1.63808254044497E-17   1.71207712376566E-02
      1.71207710283400E-02   0.00000000000000E+00   0.00000000000000E+00   1.27815098519688E-09   6.01440961893880E-35
      1.27815098519688E-09   5.64349499733801E-18
      4.46594648005855E-02
      0.00000000000000E+00   2.20378704891956E-10   0.00000000000000E+00   0.00000000000000E+00  -1.34437767543071E-09
      1.64026764001420E-34  -1.34437767543071E-09   7.15505067307673E-18   0.00000000000000E+00   0.00000000000000E+00
      0.00000000000000E+00   0.00000000000000E+00   0.00000000000000E+00   0.00000000000000E+00   0.00000000000000E+00
      3.55520336813608E-18   0.00000000000000E+00   0.00000000000000E+00   0.00000000000000E+00   0.00000000000000E+00
     -9.24809673110157E-19  -2.01797390941837E-34  -9.24809673110158E-19  -1.63807627848332E-17   1.92035698642518E-02
      1.92035696440904E-02   0.00000000000000E+00   0.00000000000000E+00   1.34437767635552E-09   3.77706269404178E-35
      1.34437767635552E-09   5.67050874362042E-18
      4.99552628589051E-02
      0.00000000000000E+00   2.30215083115425E-10   0.00000000000000E+00   0.00000000000000E+00  -1.40440276006434E-09
      1.96049984475411E-34  -1.40440276006434E-09   7.15351046893458E-18   0.00000000000000E+00   0.00000000000000E+00
      0.00000000000000E+00   0.00000000000000E+00   0.00000000000000E+00   0.00000000000000E+00   0.00000000000000E+00
      3.52715094225980E-18   0.00000000000000E+00   0.00000000000000E+00   0.00000000000000E+00   0.00000000000000E+00
     -7.09622511272061E-19  -2.45175920141684E-34  -7.09622511272062E-19  -1.63807221398985E-17   2.14807630293292E-02
      2.14807627993419E-02   0.00000000000000E+00   0.00000000000000E+00   1.40440276077397E-09   4.91259356662725E-35
      1.40440276077397E-09   5.70006072870412E-18
      5.57453354026677E-02
      0.00000000000000E+00   2.38955418862817E-10   0.00000000000000E+00   0.00000000000000E+00  -1.45777123258720E-09
      1.62380764117524E-34  -1.45777123258720E-09   7.15182682761944E-18   0.00000000000000E+00   0.00000000000000E+00
      0.00000000000000E+00   0.00000000000000E+00   0.00000000000000E+00   0.00000000000000E+00   0.00000000000000E+00
      3.49649246359609E-18   0.00000000000000E+00   0.00000000000000E+00   0.00000000000000E+00   0.00000000000000E+00
      2.35978282820230E-18  -2.30657736014470E-34   2.35978282820230E-18  -1.63807099627208E-17   2.39704942231471E-02
      2.39704939844288E-02   0.00000000000000E+00   0.00000000000000E+00   1.45777123022742E-09   6.82769718969462E-35
      1.45777123022742E-09   5.73239067150525E-18
      6.20758147171816E-02
      0.00000000000000E+00   2.46568646724723E-10   0.00000000000000E+00   0.00000000000000E+00  -1.50430327793983E-09
      1.66931024147229E-34  -1.50430327793983E-09   7.14998640418661E-18   0.00000000000000E+00   0.00000000000000E+00
      0.00000000000000E+00   0.00000000000000E+00   0.00000000000000E+00   0.00000000000000E+00   0.00000000000000E+00
      3.46298647170688E-18   0.00000000000000E+00   0.00000000000000E+00   0.00000000000000E+00   0.00000000000000E+00
     -3.48811703302078E-19  -2.03457658157226E-34  -3.48811703302078E-19  -1.63807339569710E-17   2.66926003283881E-02
      2.66926000820646E-02   0.00000000000000E+00   0.00000000000000E+00   1.50430327828864E-09   3.65266340099974E-35
      1.50430327828864E-09   5.76776108107749E-18
      6.89971387677167E-02
      0.00000000000000E+00   2.53078136894954E-10   0.00000000000000E+00   0.00000000000000E+00  -1.54415236929132E-09
      1.56539215347294E-34  -1.54415236929132E-09   7.14797461171922E-18   0.00000000000000E+00   0.00000000000000E+00
      0.00000000000000E+00   0.00000000000000E+00   0.00000000000000E+00   0.00000000000000E+00   0.00000000000000E+00
      3.42636915998923E-18   0.00000000000000E+00   0.00000000000000E+00   0.00000000000000E+00   0.00000000000000E+00
      7.61558193686260E-19  -2.04899875482805E-34   7.61558193686260E-19  -1.63808032023065E-17   2.96687696701182E-02
      2.96687694172923E-02   0.00000000000000E+00   0.00000000000000E+00   1.54415236852976E-09   4.83606601355111E-35
      1.54415236852976E-09   5.80645943059812E-18
      7.65644530629685E-02
      0.00000000000000E+00   2.58569133735886E-10   0.00000000000000E+00   0.00000000000000E+00  -1.57784962339962E-09
      1.50523403303504E-34  -1.57784962339962E-09   7.14577550513320E-18   0.00000000000000E+00   0.00000000000000E+00
      0.00000000000000E+00   0.00000000000000E+00   0.00000000000000E+00   0.00000000000000E+00   0.00000000000000E+00
      3.38635228794910E-18   0.00000000000000E+00   0.00000000000000E+00   0.00000000000000E+00   0.00000000000000E+00
     -1.61620074242301E-18  -1.89817565151576E-34  -1.61620074242301E-18  -1.63809283282481E-17   3.29227148170764E-02
      3.29227145587658E-02   0.00000000000000E+00   0.00000000000000E+00   1.57784962501582E-09   3.92941618480721E-35
      1.57784962501582E-09   5.84880053516587E-18
      8.48380500257771E-02
      0.00000000000000E+00   2.63190039029701E-10   0.00000000000000E+00   0.00000000000000E+00  -1.60631097573248E-09
      1.68765043552872E-34  -1.60631097573248E-09   7.14337165415411E-18   0.00000000000000E+00   0.00000000000000E+00
      0.00000000000000E+00   0.00000000000000E+00   0.00000000000000E+00   0.00000000000000E+00   0.00000000000000E+00
      3.34262089719661E-18   0.00000000000000E+00   0.00000000000000E+00   0.00000000000000E+00   0.00000000000000E+00
     -8.78851871930746E-18  -2.02881959326305E-34  -8.78851871930746E-18  -1.63811217041965E-17   3.64803615110841E-02
      3.64803612481589E-02   0.00000000000000E+00   0.00000000000000E+00   1.60631098452100E-09   3.41169157734325E-35
      1.60631098452100E-09   5.89512915284575E-18
      9.38838493717811E-02
      0.00000000000000E+00   2.67146060957726E-10   0.00000000000000E+00   0.00000000000000E+00  -1.63079735064013E-09
      1.57340670954984E-34  -1.63079735064013E-09   7.14074400432593E-18   0.00000000000000E+00   0.00000000000000E+00
      0.00000000000000E+00   0.00000000000000E+00   0.00000000000000E+00   0.00000000000000E+00   0.00000000000000E+00
      3.29483080209285E-18   0.00000000000000E+00   0.00000000000000E+00   0.00000000000000E+00   0.00000000000000E+00
     -2.02600567315061E-17  -1.86769795548704E-34  -2.02600567315061E-17  -1.63813976314248E-17   4.03700552298659E-02
      4.03700549629916E-02   0.00000000000000E+00   0.00000000000000E+00   1.63079737090019E-09   2.94291245937196E-35
      1.63079737090019E-09   5.94582282500605E-18
      1.03773923323412E-01
      0.00000000000000E+00   2.70683262300464E-10   0.00000000000000E+00   0.00000000000000E+00  -1.65281631989356E-09
      1.79163630620149E-34  -1.65281631989356E-09   7.13787172526341E-18   0.00000000000000E+00   0.00000000000000E+00
      0.00000000000000E+00   0.00000000000000E+00   0.00000000000000E+00   0.00000000000000E+00   0.00000000000000E+00
      3.24260584331734E-18   0.00000000000000E+00   0.00000000000000E+00   0.00000000000000E+00   0.00000000000000E+00
     -3.19083364069003E-17  -2.02354705117752E-34  -3.19083364069003E-17  -1.63817725477028E-17   4.46227870290673E-02
      4.46227867586649E-02   0.00000000000000E+00   0.00000000000000E+00   1.65281635180189E-09   2.31910744976021E-35
      1.65281635180189E-09   6.00129497912192E-18
      1.13773923323412E-01
      0.00000000000000E+00   2.73819600849944E-10   0.00000000000000E+00   0.00000000000000E+00  -1.67244061851597E-09
      1.68072526958420E-34  -1.67244061851597E-09   7.13496812541418E-18   0.00000000000000E+00   0.00000000000000E+00
      0.00000000000000E+00   0.00000000000000E+00   0.00000000000000E+00   0.00000000000000E+00   0.00000000000000E+00
      3.18982563388267E-18   0.00000000000000E+00   0.00000000000000E+00   0.00000000000000E+00   0.00000000000000E+00
     -3.31648688788357E-17  -1.92985526110611E-34  -3.31648688788357E-17  -1.63822252938548E-17   4.89227870290673E-02
      4.89227867555402E-02   0.00000000000000E+00   0.00000000000000E+00   1.67244065168084E-09   2.49129991521916E-35
      1.67244065168084E-09   6.05743153455793E-18
      1.23773923323412E-01
      0.00000000000000E+00   2.76767149537828E-10   0.00000000000000E+00   0.00000000000000E+00  -1.69094881696608E-09
      1.78848444702799E-34  -1.69094881696608E-09   7.13206508531956E-18   0.00000000000000E+00   0.00000000000000E+00
      0.00000000000000E+00   0.00000000000000E+00   0.00000000000000E+00   0.00000000000000E+00   0.00000000000000E+00
      3.13706895804748E-18   0.00000000000000E+00   0.00000000000000E+00   0.00000000000000E+00   0.00000000000000E+00
     -3.26592330472180E-17  -2.00907662788225E-34  -3.26592330472180E-17  -1.63827481077659E-17   5.32227870290673E-02
      5.32227867526071E-02   0.00000000000000E+00   0.00000000000000E+00   1.69094884962532E-09   2.20592180854265E-35
      1.69094884962532E-09   6.11361406439883E-18
      1.33773923323412E-01
      0.00000000000000E+00   2.79662208100035E-10   0.00000000000000E+00   0.00000000000000E+00  -1.70916240526229E-09
      1.90290180108265E-34  -1.70916240526229E-09   7.12916256396812E-18   0.00000000000000E+00   0.00000000000000E+00
      0.00000000000000E+00   0.00000000000000E+00   0.00000000000000E+00   0.00000000000000E+00   0.00000000000000E+00
      3.08433415150654E-18   0.00000000000000E+00   0.00000000000000E+00   0.00000000000000E+00   0.00000000000000E+00
     -5.48727379884215E-17  -2.11878046954719E-34  -5.48727379884215E-17  -1.63833372512419E-17   5.75227870290673E-02
      5.75227867497291E-02   0.00000000000000E+00   0.00000000000000E+00   1.70916246013503E-09   2.15878668464538E-35
      1.70916246013503E-09   6.16984053576719E-18
      1.43773923323412E-01
      0.00000000000000E+00   2.82564344286360E-10   0.00000000000000E+00   0.00000000000000E+00  -1.72743579610620E-09
      1.59394820405221E-34  -1.72743579610620E-09   7.12626052586352E-18   0.00000000000000E+00   0.00000000000000E+00
      0.00000000000000E+00   0.00000000000000E+00   0.00000000000000E+00   0.00000000000000E+00   0.00000000000000E+00
      3.03161970566486E-18   0.00000000000000E+00   0.00000000000000E+00   0.00000000000000E+00   0.00000000000000E+00
     -4.52279153518948E-17  -1.75688031524341E-34  -4.52279153518948E-17  -1.63839892470822E-17   6.18227870290673E-02
      6.18227867468466E-02   0.00000000000000E+00   0.00000000000000E+00   1.72743584133412E-09   1.62932111191196E-35
      1.72743584133412E-09   6.22610901555380E-18
      1.53773923323412E-01
      0.00000000000000E+00   2.85494316294956E-10   0.00000000000000E+00   0.00000000000000E+00  -1.74589147401761E-09
      1.98726626935539E-34  -1.74589147401761E-09   7.12335893950712E-18   0.00000000000000E+00   0.00000000000000E+00
      0.00000000000000E+00   0.00000000000000E+00   0.00000000000000E+00   0.00000000000000E+00   0.00000000000000E+00
      2.97892425400281E-18   0.00000000000000E+00   0.00000000000000E+00   0.00000000000000E+00   0.00000000000000E+00
     -1.68454416528039E-17  -2.10633115556278E-34  -1.68454416528039E-17  -1.63847008605005E-17   6.61227870290673E-02
      6.61227867439396E-02   0.00000000000000E+00   0.00000000000000E+00   1.74589149086305E-09   1.19064886207395E-35
      1.74589149086305E-09   6.28241766699059E-18
      1.63773923323412E-01
      0.00000000000000E+00   2.88458560553503E-10   0.00000000000000E+00   0.00000000000000E+00  -1.76456807881539E-09
      1.87327446831036E-34  -1.76456807881539E-09   7.12045777648483E-18   0.00000000000000E+00   0.00000000000000E+00
      0.00000000000000E+00   0.00000000000000E+00   0.00000000000000E+00   0.00000000000000E+00   0.00000000000000E+00
      2.92624654781887E-18   0.00000000000000E+00   0.00000000000000E+00   0.00000000000000E+00   0.00000000000000E+00
     -1.38530072509110E-17  -1.99141906007708E-34  -1.38530072509110E-17  -1.63854690676517E-17   7.04227870290673E-02
      7.04227867410012E-02   0.00000000000000E+00   0.00000000000000E+00   1.76456809266840E-09   1.18144591766714E-35
      1.76456809266840E-09   6.33876474334798E-18
      1.73773923323412E-01
      0.00000000000000E+00   2.91457629417969E-10   0.00000000000000E+00   0.00000000000000E+00  -1.78346880689657E-09
      1.43628139250267E-34  -1.78346880689657E-09   7.11755701155182E-18   0.00000000000000E+00   0.00000000000000E+00
      0.00000000000000E+00   0.00000000000000E+00   0.00000000000000E+00   0.00000000000000E+00   0.00000000000000E+00
      2.87358545681426E-18   0.00000000000000E+00   0.00000000000000E+00   0.00000000000000E+00   0.00000000000000E+00
     -1.17661515688335E-17  -1.52340221305764E-34  -1.17661515688335E-17  -1.63862910536079E-17   7.47227870290673E-02
      7.47227867380294E-02   0.00000000000000E+00   0.00000000000000E+00   1.78346881866273E-09   8.71208205549672E-36
      1.78346881866273E-09   6.39514858524188E-18
      1.83773923323412E-01
      0.00000000000000E+00   2.94487329360655E-10   0.00000000000000E+00   0.00000000000000E+00  -1.80256760810795E-09
      1.30081902880692E-34  -1.80256760810795E-09   7.11465662264913E-18   0.00000000000000E+00   0.00000000000000E+00
      0.00000000000000E+00   0.00000000000000E+00   0.00000000000000E+00   0.00000000000000E+00   0.00000000000000E+00
      2.82093996540429E-18   0.00000000000000E+00   0.00000000000000E+00   0.00000000000000E+00   0.00000000000000E+00
     -1.71033316861664E-17  -1.39098553870944E-34  -1.71033316861664E-17  -1.63871642045218E-17   7.90227870290673E-02
      7.90227867350276E-02   0.00000000000000E+00   0.00000000000000E+00   1.80256762521129E-09   9.01665099025164E-36
      1.80256762521129E-09   6.45156761646844E-18
      1.93773923323412E-01
      0.00000000000000E+00   2.97540787476788E-10   0.00000000000000E+00   0.00000000000000E+00  -1.82182203117130E-09