DF-ISE text

Info {
  version   = 1.0
  type      = xyplot
  datasets  = [
    "time"
    "source OuterVoltage" "source InnerVoltage" "source QuasiFermiPotential" "source DisplacementCurrent" "source eCurrent"
    "source hCurrent" "source TotalCurrent" "source Charge" "gate OuterVoltage" "gate InnerVoltage"
    "gate QuasiFermiPotential" "gate DisplacementCurrent" "gate eCurrent" "gate hCurrent" "gate TotalCurrent"
    "gate Charge" "substrate OuterVoltage" "substrate InnerVoltage" "substrate QuasiFermiPotential" "substrate DisplacementCurrent"
    "substrate eCurrent" "substrate hCurrent" "substrate TotalCurrent" "substrate Charge" "drain OuterVoltage"
    "drain InnerVoltage" "drain QuasiFermiPotential" "drain DisplacementCurrent" "drain eCurrent" "drain hCurrent"
    "drain TotalCurrent" "drain Charge" ]
  functions = [
    Time
    OuterVoltage InnerVoltage QuasiFermiPotential DisplacementCurrent eCurrent
    hCurrent TotalCurrent Charge OuterVoltage InnerVoltage
    QuasiFermiPotential DisplacementCurrent eCurrent hCurrent TotalCurrent
    Charge OuterVoltage InnerVoltage QuasiFermiPotential DisplacementCurrent
    eCurrent hCurrent TotalCurrent Charge OuterVoltage
    InnerVoltage QuasiFermiPotential DisplacementCurrent eCurrent hCurrent
    TotalCurrent Charge ]
}

Data {
      0.00000000000000E+00
      0.00000000000000E+00   0.00000000000000E+00   0.00000000000000E+00   0.00000000000000E+00  -1.97114323508647E-20
      7.41243566812089E-35  -1.97114323508646E-20   6.10273628384235E-18   0.00000000000000E+00   0.00000000000000E+00
      0.00000000000000E+00   0.00000000000000E+00   0.00000000000000E+00   0.00000000000000E+00   0.00000000000000E+00
      9.83639600644886E-19   0.00000000000000E+00   0.00000000000000E+00   0.00000000000000E+00   0.00000000000000E+00
      1.70427710247418E-20  -1.11297697206216E-34   1.70427710247417E-20  -1.22287482494594E-17   0.00000000000000E+00
      0.00000000000000E+00   0.00000000000000E+00   0.00000000000000E+00   2.66866132612286E-21   3.71733405250068E-35
      2.66866132612289E-21   5.14237236497222E-18
      0.00000000000000E+00
      0.00000000000000E+00   0.00000000000000E+00   0.00000000000000E+00   0.00000000000000E+00  -1.48000704035739E-18
      2.39319793155801E-35  -1.48000704035739E-18   6.09847544228171E-18   0.00000000000000E+00   0.00000000000000E+00
      0.00000000000000E+00   0.00000000000000E+00   0.00000000000000E+00   0.00000000000000E+00   0.00000000000000E+00
      9.77539225322730E-19   0.00000000000000E+00   0.00000000000000E+00   0.00000000000000E+00   0.00000000000000E+00
      2.11138695361276E-18  -4.13325358254572E-35   2.11138695361276E-18  -1.22149177167394E-17   0.00000000000000E+00
     -4.31195949331112E-19   0.00000000000000E+00   0.00000000000000E+00  -6.31379913255367E-19   1.74005565098771E-35
     -6.31379913255367E-19   5.13890304913496E-18
      1.00000000000000E-03
      0.00000000000000E+00   5.46040032703827E-12   0.00000000000000E+00   0.00000000000000E+00  -3.45706498564683E-11
      3.48175448066851E-35  -3.45706498564683E-11   6.09841581313845E-18   0.00000000000000E+00   0.00000000000000E+00
      0.00000000000000E+00   0.00000000000000E+00   0.00000000000000E+00   0.00000000000000E+00   0.00000000000000E+00
      9.76895391688862E-19   0.00000000000000E+00   0.00000000000000E+00   0.00000000000000E+00   0.00000000000000E+00
     -6.26408999013314E-20  -5.34666497685803E-35  -6.26408999013314E-20  -1.22148868323543E-17   5.00000000000000E-05
      4.99999944634556E-05   0.00000000000000E+00   0.00000000000000E+00   3.45706499191092E-11   1.86491049618952E-35
      3.45706499191092E-11   5.13957562752697E-18
      2.09333333333333E-03
      0.00000000000000E+00   1.14107026587571E-11   0.00000000000000E+00   0.00000000000000E+00  -7.22429841772116E-11
      7.83583928953751E-35  -7.22429841772116E-11   6.09835061959934E-18   0.00000000000000E+00   0.00000000000000E+00
      0.00000000000000E+00   0.00000000000000E+00   0.00000000000000E+00   0.00000000000000E+00   0.00000000000000E+00
      9.76191479126120E-19   0.00000000000000E+00   0.00000000000000E+00   0.00000000000000E+00   0.00000000000000E+00
     -5.09283346296883E-20  -9.89355356901936E-35  -5.09283346296884E-20  -1.22148530971852E-17   1.04666666666667E-04
      1.04666655096864E-04   0.00000000000000E+00   0.00000000000000E+00   7.22429842281400E-11   2.05771427948184E-35
      7.22429842281400E-11   5.14031099845975E-18
      3.29600000000000E-03
      0.00000000000000E+00   1.79310591573361E-11   0.00000000000000E+00   0.00000000000000E+00  -1.13524500992252E-10
      4.84305033839101E-35  -1.13524500992252E-10   6.09827890790857E-18   0.00000000000000E+00   0.00000000000000E+00
      0.00000000000000E+00   0.00000000000000E+00   0.00000000000000E+00   0.00000000000000E+00   0.00000000000000E+00
      9.75417190028642E-19   0.00000000000000E+00   0.00000000000000E+00   0.00000000000000E+00   0.00000000000000E+00
     -1.94808956365881E-19  -6.46791386819083E-35  -1.94808956365881E-19  -1.22148160267895E-17   1.64800000000000E-04
      1.64799981818938E-04   0.00000000000000E+00   0.00000000000000E+00   1.13524501187061E-10   1.62486352979982E-35
      1.13524501187061E-10   5.14111992885225E-18
      4.61893333333333E-03
      0.00000000000000E+00   2.50724488753229E-11   0.00000000000000E+00   0.00000000000000E+00  -1.58737871359469E-10
      2.84612065418278E-35  -1.58737871359469E-10   6.09820002650810E-18   0.00000000000000E+00   0.00000000000000E+00
      0.00000000000000E+00   0.00000000000000E+00   0.00000000000000E+00   0.00000000000000E+00   0.00000000000000E+00
      9.74565489820556E-19   0.00000000000000E+00   0.00000000000000E+00   0.00000000000000E+00   0.00000000000000E+00
      2.60664250266208E-19  -4.70670975318881E-35   2.60664250266208E-19  -1.22147752956526E-17   2.30946666666667E-04
      2.30946641244683E-04   0.00000000000000E+00   0.00000000000000E+00   1.58737871098804E-10   1.86058909900603E-35
      1.58737871098804E-10   5.14200977932393E-18
      6.07416000000000E-03
      0.00000000000000E+00   3.28897727661288E-11   0.00000000000000E+00   0.00000000000000E+00  -2.08230747594805E-10
      6.04427786645454E-35  -2.08230747594805E-10   6.09811325873748E-18   0.00000000000000E+00   0.00000000000000E+00
      0.00000000000000E+00   0.00000000000000E+00   0.00000000000000E+00   0.00000000000000E+00   0.00000000000000E+00
      9.73628641109657E-19   0.00000000000000E+00   0.00000000000000E+00   0.00000000000000E+00   0.00000000000000E+00
      2.72600389861699E-19  -8.73829404523938E-35   2.72600389861699E-19  -1.22147305473806E-17   3.03708000000000E-04
      3.03707966651743E-04   0.00000000000000E+00   0.00000000000000E+00   2.08230747322204E-10   2.69401617878484E-35
      2.08230747322204E-10   5.14298864753346E-18
      7.67490933333333E-03
      0.00000000000000E+00   4.14419929746253E-11   0.00000000000000E+00   0.00000000000000E+00  -2.62376372244110E-10
      3.59915167538469E-35  -2.62376372244110E-10   6.09801781633483E-18   0.00000000000000E+00   0.00000000000000E+00
      0.00000000000000E+00   0.00000000000000E+00   0.00000000000000E+00   0.00000000000000E+00   0.00000000000000E+00
      9.72598133538830E-19   0.00000000000000E+00   0.00000000000000E+00   0.00000000000000E+00   0.00000000000000E+00
      6.32757001045661E-19  -5.61661021730072E-35   6.32757001045661E-19  -1.22146813919591E-17   3.83745466666667E-04
      3.83745424647019E-04   0.00000000000000E+00   0.00000000000000E+00   2.62376371611353E-10   2.01745854191603E-35
      2.62376371611353E-10   5.14406544208545E-18
      9.43573360000000E-03
      0.00000000000000E+00   5.07921916003651E-11   0.00000000000000E+00   0.00000000000000E+00  -3.21574090876787E-10
      4.34237905855234E-35  -3.21574090876787E-10   6.09791283229052E-18   0.00000000000000E+00   0.00000000000000E+00
      0.00000000000000E+00   0.00000000000000E+00   0.00000000000000E+00   0.00000000000000E+00   0.00000000000000E+00
      9.71464606650134E-19   0.00000000000000E+00   0.00000000000000E+00   0.00000000000000E+00   0.00000000000000E+00
      6.51942890084559E-20  -6.75225315310628E-35   6.51942890084558E-20  -1.22146274028112E-17   4.71786680000000E-04
      4.71786628499871E-04   0.00000000000000E+00   0.00000000000000E+00   3.21574090811593E-10   2.40987409455394E-35
      3.21574090811593E-10   5.14524996387053E-18
      1.13726402933333E-02
      0.00000000000000E+00   6.10076203198567E-11   0.00000000000000E+00   0.00000000000000E+00  -3.86249601095122E-10
      6.75878759579963E-35  -3.86249601095122E-10   6.09779735298886E-18   0.00000000000000E+00   0.00000000000000E+00
      0.00000000000000E+00   0.00000000000000E+00   0.00000000000000E+00   0.00000000000000E+00   0.00000000000000E+00
      9.70217765068972E-19   0.00000000000000E+00   0.00000000000000E+00   0.00000000000000E+00   0.00000000000000E+00
      3.60249843087302E-19  -9.02648940933839E-35   3.60249843087302E-19  -1.22145681136481E-17   5.68632014666667E-04
      5.68631952808814E-04   0.00000000000000E+00   0.00000000000000E+00   3.86249600734872E-10   2.26770181353876E-35
      3.86249600734872E-10   5.14655299559029E-18
      1.35032376560000E-02
      0.00000000000000E+00   7.21596585993856E-11   0.00000000000000E+00   0.00000000000000E+00  -4.56854817912231E-10
      4.97887399776534E-35  -4.56854817912231E-10   6.09767032956731E-18   0.00000000000000E+00   0.00000000000000E+00
      0.00000000000000E+00   0.00000000000000E+00   0.00000000000000E+00   0.00000000000000E+00   0.00000000000000E+00
      9.68846285246049E-19   0.00000000000000E+00   0.00000000000000E+00   0.00000000000000E+00   0.00000000000000E+00
      2.31471859020687E-19  -9.07578528425021E-35   2.31471859020687E-19  -1.22145030151100E-17   6.75161882800000E-04
      6.75161809634783E-04   0.00000000000000E+00   0.00000000000000E+00   4.56854817680759E-10   4.09691128648486E-35
      4.56854817680759E-10   5.14798640029664E-18
      1.58468947549333E-02
      0.00000000000000E+00   8.43237392616016E-11   0.00000000000000E+00   0.00000000000000E+00  -5.33867247550792E-10
      4.43989664767558E-35  -5.33867247550792E-10   6.09753060841544E-18   0.00000000000000E+00   0.00000000000000E+00
      0.00000000000000E+00   0.00000000000000E+00   0.00000000000000E+00   0.00000000000000E+00   0.00000000000000E+00
      9.67337712918367E-19   0.00000000000000E+00   0.00000000000000E+00   0.00000000000000E+00   0.00000000000000E+00
      4.25353908926249E-19  -4.80433129066797E-35   4.25353908926249E-19  -1.22144315511907E-17   7.92344737746667E-04
      7.92344652247975E-04   0.00000000000000E+00   0.00000000000000E+00   5.33867247125438E-10   3.64434642992387E-36
      5.33867247125438E-10   5.14956322985688E-18
      1.84249175637600E-02
      0.00000000000000E+00   9.75791373732082E-11   0.00000000000000E+00   0.00000000000000E+00  -6.17788687195893E-10
      6.30744501643347E-35  -6.17788687195893E-10   6.09737692072895E-18   0.00000000000000E+00   0.00000000000000E+00
      0.00000000000000E+00   0.00000000000000E+00   0.00000000000000E+00   0.00000000000000E+00   0.00000000000000E+00
      9.65678350376687E-19   0.00000000000000E+00   0.00000000000000E+00   0.00000000000000E+00   0.00000000000000E+00
      1.07932550538506E-18  -9.11346980048051E-35   1.07932550538506E-18  -1.22143531154610E-17   9.21245878188001E-04
      9.21245779249352E-04   0.00000000000000E+00   0.00000000000000E+00   6.17788686116567E-10   2.80602478404704E-35
      6.17788686116567E-10   5.15129784435539E-18
      2.12607426534693E-02
      0.00000000000000E+00   1.12008629853567E-10   0.00000000000000E+00   0.00000000000000E+00  -7.09143110179276E-10
      4.43661713147181E-35  -7.09143110179276E-10   6.09720787102503E-18   0.00000000000000E+00   0.00000000000000E+00
      0.00000000000000E+00   0.00000000000000E+00   0.00000000000000E+00   0.00000000000000E+00   0.00000000000000E+00
      9.63853132531139E-19   0.00000000000000E+00   0.00000000000000E+00   0.00000000000000E+00   0.00000000000000E+00
      1.05787748473492E-18  -5.76379806839103E-35   1.05787748473492E-18  -1.22142670471012E-17   1.06303713267347E-03
      1.06303701910446E-03   0.00000000000000E+00   0.00000000000000E+00   7.09143109121399E-10   1.32718093691921E-35
      7.09143109121399E-10   5.15320604354505E-18
      2.43801502521496E-02
      0.00000000000000E+00   1.27698015357422E-10   0.00000000000000E+00   0.00000000000000E+00  -8.08473594142261E-10
      4.53880072133494E-35  -8.08473594142261E-10   6.09702192451621E-18   0.00000000000000E+00   0.00000000000000E+00
      0.00000000000000E+00   0.00000000000000E+00   0.00000000000000E+00   0.00000000000000E+00   0.00000000000000E+00
      9.61845490660437E-19   0.00000000000000E+00   0.00000000000000E+00   0.00000000000000E+00   0.00000000000000E+00
      1.30329023348872E-18  -6.22280489341899E-35   1.30329023348872E-18  -1.22141726267452E-17   1.21900751260748E-03
      1.21900738313072E-03   0.00000000000000E+00   0.00000000000000E+00   8.08473592838969E-10   1.68400417208407E-35
      8.08473592838969E-10   5.15530521156858E-18
      2.78114986106979E-02
      0.00000000000000E+00   1.44735440021355E-10   0.00000000000000E+00   0.00000000000000E+00  -9.16338023245050E-10
      7.45325768986495E-35  -9.16338023245050E-10   6.09681739323015E-18   0.00000000000000E+00   0.00000000000000E+00
      0.00000000000000E+00   0.00000000000000E+00   0.00000000000000E+00   0.00000000000000E+00   0.00000000000000E+00
      9.59637202640955E-19   0.00000000000000E+00   0.00000000000000E+00   0.00000000000000E+00   0.00000000000000E+00
      1.82730917564807E-18  -8.36831119005003E-35   1.82730917564807E-18  -1.22140690721819E-17   1.39057493053490E-03
      1.39057478378364E-03   0.00000000000000E+00   0.00000000000000E+00   9.16338021417742E-10   9.15053500185082E-36
      9.16338021417742E-10   5.15761447631077E-18
      3.15859818051010E-02
      0.00000000000000E+00   1.63210505133399E-10   0.00000000000000E+00   0.00000000000000E+00  -1.03330341015743E-09
      2.68167968049923E-35  -1.03330341015743E-09   6.09659242075113E-18   0.00000000000000E+00   0.00000000000000E+00
      0.00000000000000E+00   0.00000000000000E+00   0.00000000000000E+00   0.00000000000000E+00   0.00000000000000E+00
      9.57208228310757E-19   0.00000000000000E+00   0.00000000000000E+00   0.00000000000000E+00   0.00000000000000E+00
      3.69794532132904E-18  -4.71824641926397E-35   3.69794532132904E-18  -1.22139555339306E-17   1.57929909025505E-03
      1.57929892477172E-03   0.00000000000000E+00   0.00000000000000E+00   1.03330340645948E-09   2.03656673876473E-35
      1.03330340645948E-09   5.16015488486871E-18
      3.57379133189445E-02
      0.00000000000000E+00   1.83213060528249E-10   0.00000000000000E+00   0.00000000000000E+00  -1.15993851550046E-09
      5.98466528259783E-35  -1.15993851550046E-09   6.09634496544845E-18   0.00000000000000E+00   0.00000000000000E+00
      0.00000000000000E+00   0.00000000000000E+00   0.00000000000000E+00   0.00000000000000E+00   0.00000000000000E+00
      9.54536528517294E-19   0.00000000000000E+00   0.00000000000000E+00   0.00000000000000E+00   0.00000000000000E+00
      5.41694575228287E-18  -6.97354411027327E-35   5.41694575228287E-18  -1.22138310907609E-17   1.78689566594722E-03
      1.78689548018313E-03   0.00000000000000E+00   0.00000000000000E+00   1.15993851008352E-09   9.88878827675434E-36
      1.15993851008352E-09   5.16294959679510E-18
      4.03050379841723E-02
      0.00000000000000E+00   2.04831803846191E-10   0.00000000000000E+00   0.00000000000000E+00  -1.29680454090596E-09
      3.87407897386962E-35  -1.29680454090596E-09   6.09607278204199E-18   0.00000000000000E+00   0.00000000000000E+00
      0.00000000000000E+00   0.00000000000000E+00   0.00000000000000E+00   0.00000000000000E+00   0.00000000000000E+00
      9.51597866240771E-19   0.00000000000000E+00   0.00000000000000E+00   0.00000000000000E+00   0.00000000000000E+00
      1.36741361819645E-18  -5.80536569144112E-35   1.36741361819645E-18  -1.22136947452191E-17   2.01525189920861E-03
      2.01525169152517E-03   0.00000000000000E+00   0.00000000000000E+00   1.29680453953855E-09   1.93128671757150E-35
      1.29680453953855E-09   5.16602409693640E-18
      4.53288751159228E-02
      0.00000000000000E+00   2.28152414474397E-10   0.00000000000000E+00   0.00000000000000E+00  -1.44444365192922E-09
      5.52027193558417E-35  -1.44444365192922E-09   6.09577340134136E-18   0.00000000000000E+00   0.00000000000000E+00
      0.00000000000000E+00   0.00000000000000E+00   0.00000000000000E+00   0.00000000000000E+00   0.00000000000000E+00
      9.48365588025895E-19   0.00000000000000E+00   0.00000000000000E+00   0.00000000000000E+00   0.00000000000000E+00
      2.16346716524366E-17  -9.50402717800542E-35   2.16346716524366E-17  -1.22135454192394E-17   2.26644375579614E-03
      2.26644352446790E-03   0.00000000000000E+00   0.00000000000000E+00   1.44444363029455E-09   3.98375524242125E-35
      1.44444363029455E-09   5.16940642987217E-18
      5.08550959608485E-02
      0.00000000000000E+00   2.53255369296249E-10   0.00000000000000E+00   0.00000000000000E+00  -1.60336492529801E-09
      6.51451767486024E-35  -1.60336492529801E-09   6.09544410797992E-18   0.00000000000000E+00   0.00000000000000E+00
      0.00000000000000E+00   0.00000000000000E+00   0.00000000000000E+00   0.00000000000000E+00   0.00000000000000E+00
      9.44810383804283E-19   0.00000000000000E+00   0.00000000000000E+00   0.00000000000000E+00   0.00000000000000E+00
      6.04732481013387E-18  -9.42284524900638E-35   6.04732481013387E-18  -1.22133819499722E-17   2.54275479804242E-03
      2.54275454126239E-03   0.00000000000000E+00   0.00000000000000E+00   1.60336491925068E-09   2.90832757414615E-35
      1.60336491925068E-09   5.17312745818804E-18
      5.69339388902666E-02
      0.00000000000000E+00   2.80213267006038E-10   0.00000000000000E+00   0.00000000000000E+00  -1.77402777183443E-09
      7.28399047465307E-35  -1.77402777183443E-09   6.09508191594635E-18   0.00000000000000E+00   0.00000000000000E+00
      0.00000000000000E+00   0.00000000000000E+00   0.00000000000000E+00   0.00000000000000E+00   0.00000000000000E+00
      9.40900022979840E-19   0.00000000000000E+00   0.00000000000000E+00   0.00000000000000E+00   0.00000000000000E+00
     -4.12696345683566E-17  -9.17614735127044E-35  -4.12696345683566E-17  -1.22132030859610E-17   2.84669694451333E-03
      2.84669666040091E-03   0.00000000000000E+00   0.00000000000000E+00   1.77402781310406E-09   1.89215687661737E-35
      1.77402781310406E-09   5.17722114703483E-18
      6.36206661126266E-02
      0.00000000000000E+00   3.09087752398471E-10   0.00000000000000E+00   0.00000000000000E+00  -1.95682204910266E-09
      4.19276851133005E-35  -1.95682204910266E-09   6.09468354169997E-18   0.00000000000000E+00   0.00000000000000E+00
      0.00000000000000E+00   0.00000000000000E+00   0.00000000000000E+00   0.00000000000000E+00   0.00000000000000E+00
      9.36599064494141E-19   0.00000000000000E+00   0.00000000000000E+00   0.00000000000000E+00   0.00000000000000E+00
     -1.51666320147220E-17  -6.01732746259758E-35  -1.51666320147220E-17  -1.22130074839063E-17   3.18103330563133E-03
      3.18103299224345E-03   0.00000000000000E+00   0.00000000000000E+00   1.95682206426929E-09   1.82455895126753E-35
      1.95682206426929E-09   5.18172487771214E-18
      7.09760660572226E-02
      0.00000000000000E+00   3.39925886542781E-10   0.00000000000000E+00   0.00000000000000E+00  -2.15204556626160E-09
      5.48506292580424E-35  -2.15204556626160E-09   6.09424537462944E-18   0.00000000000000E+00   0.00000000000000E+00
      0.00000000000000E+00   0.00000000000000E+00   0.00000000000000E+00   0.00000000000000E+00   0.00000000000000E+00
      9.31868538249377E-19   0.00000000000000E+00   0.00000000000000E+00   0.00000000000000E+00   0.00000000000000E+00
      1.75047315854119E-16  -7.92062019625680E-35   1.75047315854119E-16  -1.22127937061119E-17   3.54880330286113E-03
      3.54880295820707E-03   0.00000000000000E+00   0.00000000000000E+00   2.15204539121428E-09   2.43555727045256E-35
      2.15204539121428E-09   5.18667979323307E-18
      7.90670059962782E-02
      0.00000000000000E+00   3.72756199635438E-10   0.00000000000000E+00   0.00000000000000E+00  -2.35987825160313E-09
      5.74787413398348E-35  -2.35987825160313E-09   6.09376344459845E-18   0.00000000000000E+00   0.00000000000000E+00
      0.00000000000000E+00   0.00000000000000E+00   0.00000000000000E+00   0.00000000000000E+00   0.00000000000000E+00
      9.26665595148404E-19   0.00000000000000E+00   0.00000000000000E+00   0.00000000000000E+00   0.00000000000000E+00
      7.49660249467789E-17  -8.63141616034409E-35   7.49660249467789E-17  -1.22125602190226E-17   3.95335029981391E-03
      3.95334992187406E-03   0.00000000000000E+00   0.00000000000000E+00   2.35987817663710E-09   2.88354202636063E-35
      2.35987817663710E-09   5.19213117927575E-18
      8.79670399292394E-02
      0.00000000000000E+00   4.07584047835169E-10   0.00000000000000E+00   0.00000000000000E+00  -2.58035424451490E-09
      5.25765402460632E-35  -2.58035424451490E-09   6.09323338629350E-18   0.00000000000000E+00   0.00000000000000E+00
      0.00000000000000E+00   0.00000000000000E+00   0.00000000000000E+00   0.00000000000000E+00   0.00000000000000E+00
      9.20943122766535E-19   0.00000000000000E+00   0.00000000000000E+00   0.00000000000000E+00   0.00000000000000E+00
      1.13925707957720E-16  -7.86314827441544E-35   1.13925707957720E-16  -1.22123053931873E-17   4.39835199646197E-03
      4.39835158321136E-03   0.00000000000000E+00   0.00000000000000E+00   2.58035413058919E-09   2.60549424980911E-35
      2.58035413058919E-09   5.19812888412733E-18
      9.77570772554967E-02
      0.00000000000000E+00   4.44386708057537E-10   0.00000000000000E+00   0.00000000000000E+00  -2.81332976320794E-09
      5.30584099355928E-35  -2.81332976320794E-09   6.09265040006404E-18   0.00000000000000E+00   0.00000000000000E+00
      0.00000000000000E+00   0.00000000000000E+00   0.00000000000000E+00   0.00000000000000E+00   0.00000000000000E+00
      9.14649323178924E-19   0.00000000000000E+00   0.00000000000000E+00   0.00000000000000E+00   0.00000000000000E+00
      1.10900638416263E-16  -5.93125362687058E-35   1.10900638416263E-16  -1.22120275049950E-17   4.88785386277484E-03
      4.88785341221159E-03   0.00000000000000E+00   0.00000000000000E+00   2.81332965230730E-09   6.25412633311307E-36
      2.81332965230730E-09   5.20472778175205E-18
      1.07757077255497E-01
      0.00000000000000E+00   4.80402730293650E-10   0.00000000000000E+00   0.00000000000000E+00  -3.04132408073749E-09
      3.38859652393189E-35  -3.04132408073749E-09   6.09205499454891E-18   0.00000000000000E+00   0.00000000000000E+00
      0.00000000000000E+00   0.00000000000000E+00   0.00000000000000E+00   0.00000000000000E+00   0.00000000000000E+00
      9.08221531771013E-19   0.00000000000000E+00   0.00000000000000E+00   0.00000000000000E+00   0.00000000000000E+00
      1.41096393430399E-16  -3.66307747324123E-35   1.41096393430399E-16  -1.22117462610620E-17   5.38785386277483E-03
      5.38785337569689E-03   0.00000000000000E+00   0.00000000000000E+00   3.04132393964110E-09   2.74480949309328E-36
      3.04132393964110E-09   5.21146973474209E-18
      1.17757077255497E-01
      0.00000000000000E+00   5.14883350976347E-10   0.00000000000000E+00   0.00000000000000E+00  -3.25959811715530E-09
      5.84601053637950E-35  -3.25959811715530E-09   6.09145967315724E-18   0.00000000000000E+00   0.00000000000000E+00
      0.00000000000000E+00   0.00000000000000E+00   0.00000000000000E+00   0.00000000000000E+00   0.00000000000000E+00
      9.01794732591577E-19   0.00000000000000E+00   0.00000000000000E+00   0.00000000000000E+00   0.00000000000000E+00
     -2.76030929779890E-19  -7.19605526611678E-35  -2.76030929779890E-19  -1.22114676344890E-17   5.88785386277483E-03
      5.88785334073927E-03   0.00000000000000E+00   0.00000000000000E+00   3.25959811743133E-09   1.35004472973728E-35
      3.25959811743133E-09   5.21821322874012E-18
      1.27757077255497E-01
      0.00000000000000E+00   5.47885751942562E-10   0.00000000000000E+00   0.00000000000000E+00  -3.46851515890854E-09
      6.34719505930995E-35  -3.46851515890854E-09   6.09086443535140E-18   0.00000000000000E+00   0.00000000000000E+00
      0.00000000000000E+00   0.00000000000000E+00   0.00000000000000E+00   0.00000000000000E+00   0.00000000000000E+00
      8.95368918858957E-19   0.00000000000000E+00   0.00000000000000E+00   0.00000000000000E+00   0.00000000000000E+00
      1.90392461840351E-16  -7.87375285556659E-35   1.90392461840351E-16  -1.22111916110477E-17   6.38785386277483E-03
      6.38785330728063E-03   0.00000000000000E+00   0.00000000000000E+00   3.46851496851607E-09   1.52655779625664E-35
      3.46851496851607E-09   5.22495825683737E-18
      1.37757077255497E-01
      0.00000000000000E+00   5.79465695135707E-10   0.00000000000000E+00   0.00000000000000E+00  -3.66842855611134E-09
      2.93741996866656E-35  -3.66842855611134E-09   6.09026928058171E-18   0.00000000000000E+00   0.00000000000000E+00
      0.00000000000000E+00   0.00000000000000E+00   0.00000000000000E+00   0.00000000000000E+00   0.00000000000000E+00
      8.88944083751977E-19   0.00000000000000E+00   0.00000000000000E+00   0.00000000000000E+00   0.00000000000000E+00
      1.73318090010959E-16  -3.94051891454068E-35   1.73318090010959E-16  -1.22109181764855E-17   6.88785386277483E-03
      6.88785327526457E-03   0.00000000000000E+00   0.00000000000000E+00   3.66842838279325E-09   1.00309894587412E-35
      3.66842838279325E-09   5.23170481215180E-18
      1.47757077255497E-01
      0.00000000000000E+00   6.09677996193703E-10   0.00000000000000E+00   0.00000000000000E+00  -3.85968627792253E-09
      4.77872945408597E-35  -3.85968627792253E-09   6.08967420829863E-18   0.00000000000000E+00   0.00000000000000E+00
      0.00000000000000E+00   0.00000000000000E+00   0.00000000000000E+00   0.00000000000000E+00   0.00000000000000E+00
      8.82520220531432E-19   0.00000000000000E+00   0.00000000000000E+00   0.00000000000000E+00   0.00000000000000E+00
      1.71948001022265E-16  -7.86801044348322E-35   1.71948001022265E-16  -1.22106473166786E-17   7.38785386277483E-03
      7.38785324463543E-03   0.00000000000000E+00   0.00000000000000E+00   3.85968610597452E-09   3.08928098939725E-35
      3.85968610597452E-09   5.23845288784848E-18
      1.57757077255497E-01
      0.00000000000000E+00   6.38576176657769E-10   0.00000000000000E+00   0.00000000000000E+00  -4.04262790462321E-09
      8.92504606763314E-35  -4.04262790462321E-09   6.08907921793919E-18   0.00000000000000E+00   0.00000000000000E+00
      0.00000000000000E+00   0.00000000000000E+00   0.00000000000000E+00   0.00000000000000E+00   0.00000000000000E+00
      8.76097322402235E-19   0.00000000000000E+00   0.00000000000000E+00   0.00000000000000E+00   0.00000000000000E+00
      1.99957191345593E-16  -1.28515278457299E-34   1.99957191345593E-16  -1.22103790174399E-17   7.88785386277484E-03
      7.88785321533900E-03   0.00000000000000E+00   0.00000000000000E+00   4.04262770466601E-09   3.92648177809675E-35
      4.04262770466601E-09   5.24520247709843E-18
      1.67757077255497E-01
      0.00000000000000E+00   6.66212330340511E-10   0.00000000000000E+00   0.00000000000000E+00  -4.21758374577354E-09
      7.35275951635095E-35  -4.21758374577354E-09   6.08848430894009E-18   0.00000000000000E+00   0.00000000000000E+00
      0.00000000000000E+00   0.00000000000000E+00   0.00000000000000E+00   0.00000000000000E+00   0.00000000000000E+00
      8.69675382611102E-19   0.00000000000000E+00   0.00000000000000E+00   0.00000000000000E+00   0.00000000000000E+00
      1.67889511407354E-16  -1.04991102732391E-34   1.67889511407354E-16  -1.22101132646468E-17   8.38785386277484E-03
      8.38785318732242E-03   0.00000000000000E+00   0.00000000000000E+00   4.21758357788403E-09   3.14635075688812E-35
      4.21758357788403E-09   5.25195357309562E-18
      1.77757077255497E-01
      0.00000000000000E+00   6.92637094161948E-10   0.00000000000000E+00   0.00000000000000E+00  -4.38487523219696E-09
      5.33140246042570E-35  -4.38487523219696E-09   6.08788948073225E-18   0.00000000000000E+00   0.00000000000000E+00
      0.00000000000000E+00   0.00000000000000E+00   0.00000000000000E+00   0.00000000000000E+00   0.00000000000000E+00
      8.63254394410281E-19   0.00000000000000E+00   0.00000000000000E+00   0.00000000000000E+00   0.00000000000000E+00
      1.65393149935694E-16  -7.95747285670706E-35   1.65393149935694E-16  -1.22098500442083E-17   8.88785386277484E-03
      8.88785316053434E-03   0.00000000000000E+00   0.00000000000000E+00   4.38487506680380E-09   2.62607039628135E-35
      4.38487506680380E-09   5.25870616906566E-18
      1.87757077255497E-01
      0.00000000000000E+00   7.17899552822511E-10   0.00000000000000E+00   0.00000000000000E+00  -4.54481359672717E-09
      5.58979579071442E-35  -4.54481359672717E-09   6.08729473275279E-18   0.00000000000000E+00   0.00000000000000E+00
      0.00000000000000E+00   0.00000000000000E+00   0.00000000000000E+00   0.00000000000000E+00   0.00000000000000E+00
      8.56834351190511E-19   0.00000000000000E+00   0.00000000000000E+00   0.00000000000000E+00   0.00000000000000E+00
      1.57875721236104E-16  -6.55740494851732E-35   1.57875721236104E-16  -1.22095893422594E-17   9.38785386277484E-03
      9.38785313492505E-03   0.00000000000000E+00   0.00000000000000E+00   4.54481343885145E-09   9.67609157802898E-36
      4.54481343885145E-09   5.26546025831608E-18
      1.97757077255497E-01
      0.00000000000000E+00   7.42047019420358E-10   0.00000000000000E+00   0.00000000000000E+00  -4.69769906261696E-09