DF-ISE text

Info {
  version   = 1.0
  type      = xyplot
  datasets  = [
    "time"
    "source OuterVoltage" "source InnerVoltage" "source QuasiFermiPotential" "source DisplacementCurrent" "source eCurrent"
    "source hCurrent" "source TotalCurrent" "source Charge" "gate OuterVoltage" "gate InnerVoltage"
    "gate QuasiFermiPotential" "gate DisplacementCurrent" "gate eCurrent" "gate hCurrent" "gate TotalCurrent"
    "gate Charge" "substrate OuterVoltage" "substrate InnerVoltage" "substrate QuasiFermiPotential" "substrate DisplacementCurrent"
    "substrate eCurrent" "substrate hCurrent" "substrate TotalCurrent" "substrate Charge" "drain OuterVoltage"
    "drain InnerVoltage" "drain QuasiFermiPotential" "drain DisplacementCurrent" "drain eCurrent" "drain hCurrent"
    "drain TotalCurrent" "drain Charge" ]
  functions = [
    Time
    OuterVoltage InnerVoltage QuasiFermiPotential DisplacementCurrent eCurrent
    hCurrent TotalCurrent Charge OuterVoltage InnerVoltage
    QuasiFermiPotential DisplacementCurrent eCurrent hCurrent TotalCurrent
    Charge OuterVoltage InnerVoltage QuasiFermiPotential DisplacementCurrent
    eCurrent hCurrent TotalCurrent Charge OuterVoltage
    InnerVoltage QuasiFermiPotential DisplacementCurrent eCurrent hCurrent
    TotalCurrent Charge ]
}

Data {
      0.00000000000000E+00
      0.00000000000000E+00   0.00000000000000E+00   0.00000000000000E+00   0.00000000000000E+00   1.19427732774103E-22
     -1.14695674911935E-34   1.19427732773989E-22   5.77265804779293E-18   0.00000000000000E+00   0.00000000000000E+00
      0.00000000000000E+00   0.00000000000000E+00   0.00000000000000E+00   0.00000000000000E+00   0.00000000000000E+00
      2.14306504755206E-18   0.00000000000000E+00   0.00000000000000E+00   0.00000000000000E+00   0.00000000000000E+00
     -1.17947463600566E-19   3.31466255757621E-34  -1.17947463600566E-19  -1.40399372169508E-17   0.00000000000000E+00
      0.00000000000000E+00   0.00000000000000E+00   0.00000000000000E+00   1.17828035867792E-19  -2.16770580845686E-34
      1.17828035867792E-19   6.12421412160583E-18
      0.00000000000000E+00
      0.00000000000000E+00   4.48023108329399E-19   0.00000000000000E+00   0.00000000000000E+00  -3.40849084689838E-19
     -1.36722880390972E-34  -3.40849084689838E-19   5.76796966833635E-18   0.00000000000000E+00   0.00000000000000E+00
      0.00000000000000E+00   0.00000000000000E+00   0.00000000000000E+00   0.00000000000000E+00   0.00000000000000E+00
      2.13578374344429E-18   0.00000000000000E+00   0.00000000000000E+00   0.00000000000000E+00   0.00000000000000E+00
      2.56964799772588E-18   3.70579505902992E-34   2.56964799772588E-18  -1.40236779176484E-17   0.00000000000000E+00
     -1.79209243331760E-18   0.00000000000000E+00   0.00000000000000E+00  -2.22879891303604E-18  -2.33856625512020E-34
     -2.22879891303604E-18   6.11992450586770E-18
      1.00000000000000E-03
      0.00000000000000E+00   2.75582768367061E-11   0.00000000000000E+00   0.00000000000000E+00  -1.56415843392754E-10
     -9.86932456616689E-35  -1.56415843392754E-10   5.76719337759398E-18   0.00000000000000E+00   0.00000000000000E+00
      0.00000000000000E+00   0.00000000000000E+00   0.00000000000000E+00   0.00000000000000E+00   0.00000000000000E+00
      2.12376225363264E-18   0.00000000000000E+00   0.00000000000000E+00   0.00000000000000E+00   0.00000000000000E+00
     -8.78190256824630E-19   3.20996892761490E-34  -8.78190256824630E-19  -1.40232700374137E-17   8.60000000000000E-04
      8.59999972241244E-04   0.00000000000000E+00   0.00000000000000E+00   1.56415844270944E-10  -2.22303647099820E-34
      1.56415844270944E-10   6.13231440618702E-18
      2.08666666666667E-03
      0.00000000000000E+00   5.56734741744984E-11   0.00000000000000E+00   0.00000000000000E+00  -3.15987244553907E-10
     -1.04256864018103E-34  -3.15987244553907E-10   5.76634990541882E-18   0.00000000000000E+00   0.00000000000000E+00
      0.00000000000000E+00   0.00000000000000E+00   0.00000000000000E+00   0.00000000000000E+00   0.00000000000000E+00
      2.11070129722640E-18   0.00000000000000E+00   0.00000000000000E+00   0.00000000000000E+00   0.00000000000000E+00
      3.22712653356002E-19   3.15418518520264E-34   3.22712653356002E-19  -1.40228325895072E-17   1.79453333333333E-03
      1.79453327725535E-03   0.00000000000000E+00   0.00000000000000E+00   3.15987244231194E-10  -2.11161654502161E-34
      3.15987244231194E-10   6.14578138686198E-18
      3.27475555555556E-03
      0.00000000000000E+00   8.42648887148272E-11   0.00000000000000E+00   0.00000000000000E+00  -4.78253750677913E-10
     -9.36301955450144E-35  -4.78253750677913E-10   5.76542782380093E-18   0.00000000000000E+00   0.00000000000000E+00
      0.00000000000000E+00   0.00000000000000E+00   0.00000000000000E+00   0.00000000000000E+00   0.00000000000000E+00
      2.09642413478629E-18   0.00000000000000E+00   0.00000000000000E+00   0.00000000000000E+00   0.00000000000000E+00
     -3.25980048490276E-19   2.83624001488775E-34  -3.25980048490276E-19  -1.40223611258281E-17   2.81628977777778E-03
      2.81628969290141E-03   0.00000000000000E+00   0.00000000000000E+00   4.78253751003893E-10  -1.89993805943760E-34
      4.78253751003893E-10   6.16050916724096E-18
      4.57373274074074E-03
      0.00000000000000E+00   1.13072990079523E-10   0.00000000000000E+00   0.00000000000000E+00  -6.41741375798943E-10
     -1.25591111138425E-34  -6.41741375798943E-10   5.76441981637668E-18   0.00000000000000E+00   0.00000000000000E+00
      0.00000000000000E+00   0.00000000000000E+00   0.00000000000000E+00   0.00000000000000E+00   0.00000000000000E+00
      2.08081775424406E-18   0.00000000000000E+00   0.00000000000000E+00   0.00000000000000E+00   0.00000000000000E+00
      5.36229333916791E-19   3.21533583240174E-34   5.36229333916791E-19  -1.40218537016848E-17   3.93341015703704E-03
      3.93341004314455E-03   0.00000000000000E+00   0.00000000000000E+00   6.41741375262715E-10  -1.95942472101749E-34
      6.41741375262715E-10   6.17661613106403E-18
      5.99394779654321E-03
      0.00000000000000E+00   1.41817615530230E-10   0.00000000000000E+00   0.00000000000000E+00  -8.04859630814338E-10
     -1.10585773091288E-34  -8.04859630814338E-10   5.76331788714812E-18   0.00000000000000E+00   0.00000000000000E+00
      0.00000000000000E+00   0.00000000000000E+00   0.00000000000000E+00   0.00000000000000E+00   0.00000000000000E+00
      2.06375867956402E-18   0.00000000000000E+00   0.00000000000000E+00   0.00000000000000E+00   0.00000000000000E+00
     -1.62859422638125E-18   3.02803078324065E-34  -1.62859422638125E-18  -1.40213084024529E-17   5.15479510502716E-03
      5.15479496218305E-03   0.00000000000000E+00   0.00000000000000E+00   8.04859632442933E-10  -1.92217305232776E-34
      8.04859632442933E-10   6.19423183574073E-18
      7.54671625755391E-03
      0.00000000000000E+00   1.70198133496844E-10   0.00000000000000E+00   0.00000000000000E+00  -9.65903069443049E-10
     -1.35203904950260E-34  -9.65903069443049E-10   5.76211329751898E-18   0.00000000000000E+00   0.00000000000000E+00
      0.00000000000000E+00   0.00000000000000E+00   0.00000000000000E+00   0.00000000000000E+00   0.00000000000000E+00
      2.04511200641980E-18   0.00000000000000E+00   0.00000000000000E+00   0.00000000000000E+00   0.00000000000000E+00
      1.21880717096813E-18   3.15225945473101E-34   1.21880717096813E-18  -1.40207233793452E-17   6.49017598149636E-03
      6.49017581006794E-03   0.00000000000000E+00   0.00000000000000E+00   9.65903068224242E-10  -1.80022040522841E-34
      9.65903068224242E-10   6.21349807540638E-18
      9.24440977492561E-03
      0.00000000000000E+00   1.97898210991406E-10   0.00000000000000E+00   0.00000000000000E+00  -1.12307819533443E-09
     -1.43932530397404E-34  -1.12307819533443E-09   5.76079649747426E-18   0.00000000000000E+00   0.00000000000000E+00
      0.00000000000000E+00   0.00000000000000E+00   0.00000000000000E+00   0.00000000000000E+00   0.00000000000000E+00
      2.02473034959744E-18   0.00000000000000E+00   0.00000000000000E+00   0.00000000000000E+00   0.00000000000000E+00
     -9.88973846616011E-19   3.17613512505263E-34  -9.88973846616011E-19  -1.40200968933324E-17   7.95019240643603E-03
      7.95019220710928E-03   0.00000000000000E+00   0.00000000000000E+00   1.12307819632341E-09  -1.73680982107860E-34
      1.12307819632341E-09   6.23457004626074E-18
      1.11005546872520E-02
      0.00000000000000E+00   2.24594318878790E-10   0.00000000000000E+00   0.00000000000000E+00  -1.27455196999825E-09
     -1.22932790712634E-34  -1.27455196999825E-09   5.75935705032878E-18   0.00000000000000E+00   0.00000000000000E+00
      0.00000000000000E+00   0.00000000000000E+00   0.00000000000000E+00   0.00000000000000E+00   0.00000000000000E+00
      2.00245269269020E-18   0.00000000000000E+00   0.00000000000000E+00   0.00000000000000E+00   0.00000000000000E+00
      8.50885127607217E-19   2.84216490147176E-34   8.50885127607218E-19  -1.40194273665000E-17   9.54647703103672E-03
      9.54647680482355E-03   0.00000000000000E+00   0.00000000000000E+00   1.27455196914736E-09  -1.61283699434542E-34
      1.27455196914736E-09   6.25761762348102E-18
      1.31299397913955E-02
      0.00000000000000E+00   2.49966532817799E-10   0.00000000000000E+00   0.00000000000000E+00  -1.41851329264705E-09
     -9.87758471783230E-35  -1.41851329264705E-09   5.75778355051138E-18   0.00000000000000E+00   0.00000000000000E+00
      0.00000000000000E+00   0.00000000000000E+00   0.00000000000000E+00   0.00000000000000E+00   0.00000000000000E+00
      1.97810313269305E-18   0.00000000000000E+00   0.00000000000000E+00   0.00000000000000E+00   0.00000000000000E+00
      1.95735223989491E-18   2.31157918348869E-34   1.95735223989492E-18  -1.40187134442784E-17   1.12917482206002E-02
      1.12917479688347E-02   0.00000000000000E+00   0.00000000000000E+00   1.41851329068970E-09  -1.32382071170546E-34
      1.41851329068970E-09   6.28282676107401E-18
      1.53487341719258E-02
      0.00000000000000E+00   2.73711691251837E-10   0.00000000000000E+00   0.00000000000000E+00  -1.55324794001428E-09
     -1.51752826873501E-34  -1.55324794001428E-09   5.75606353366160E-18   0.00000000000000E+00   0.00000000000000E+00
      0.00000000000000E+00   0.00000000000000E+00   0.00000000000000E+00   0.00000000000000E+00   0.00000000000000E+00
      1.95148950907533E-18   0.00000000000000E+00   0.00000000000000E+00   0.00000000000000E+00   0.00000000000000E+00
      5.97969352905614E-19   3.00788329403349E-34   5.97969352905614E-19  -1.40179540686566E-17   1.31999113878562E-02
      1.31999111121781E-02   0.00000000000000E+00   0.00000000000000E+00   1.55324793941631E-09  -1.49035502529847E-34
      1.55324793941631E-09   6.31040102591965E-18
      1.77746160279722E-02
      0.00000000000000E+00   2.95561075744828E-10   0.00000000000000E+00   0.00000000000000E+00  -1.67723883390671E-09
     -1.39507511894953E-34  -1.67723883390671E-09   5.75418337823998E-18   0.00000000000000E+00   0.00000000000000E+00
      0.00000000000000E+00   0.00000000000000E+00   0.00000000000000E+00   0.00000000000000E+00   0.00000000000000E+00
      1.92240190293840E-18   0.00000000000000E+00   0.00000000000000E+00   0.00000000000000E+00   0.00000000000000E+00
     -6.97682231341484E-19   2.66906719680317E-34  -6.97682231341484E-19  -1.40171485593572E-17   1.52861697840561E-02
      1.52861694863758E-02   0.00000000000000E+00   0.00000000000000E+00   1.67723883460439E-09  -1.27399207785364E-34
      1.67723883460439E-09   6.34056327817881E-18
      2.04269135239163E-02
      0.00000000000000E+00   3.15298224380006E-10   0.00000000000000E+00   0.00000000000000E+00  -1.78926708037276E-09
     -1.35026038774294E-34  -1.78926708037276E-09   5.75212819797366E-18   0.00000000000000E+00   0.00000000000000E+00
      0.00000000000000E+00   0.00000000000000E+00   0.00000000000000E+00   0.00000000000000E+00   0.00000000000000E+00
      1.89061099911748E-18   0.00000000000000E+00   0.00000000000000E+00   0.00000000000000E+00   0.00000000000000E+00
      9.81340540195075E-21   2.52669047231394E-34   9.81340540195100E-21  -1.40162967099929E-17   1.75671456305680E-02
      1.75671453130140E-02   0.00000000000000E+00   0.00000000000000E+00   1.78926708036294E-09  -1.17643008457099E-34
      1.78926708036294E-09   6.37355751290172E-18
      2.33267587861485E-02
      0.00000000000000E+00   3.32777634484570E-10   0.00000000000000E+00   0.00000000000000E+00  -1.88851847076479E-09
     -1.06356354545867E-34  -1.88851847076479E-09   5.74988172426547E-18   0.00000000000000E+00   0.00000000000000E+00
      0.00000000000000E+00   0.00000000000000E+00   0.00000000000000E+00   0.00000000000000E+00   0.00000000000000E+00
      1.85586629757079E-18   0.00000000000000E+00   0.00000000000000E+00   0.00000000000000E+00   0.00000000000000E+00
      7.45571756876658E-19   2.12640515788558E-34   7.45571756876659E-19  -1.40153989000715E-17   2.00610125560877E-02
      2.00610122209354E-02   0.00000000000000E+00   0.00000000000000E+00   1.88851847001922E-09  -1.06284161242690E-34
      1.88851847001922E-09   6.40965087823521E-18
      2.64972562728556E-02
      0.00000000000000E+00   3.47946109138708E-10   0.00000000000000E+00   0.00000000000000E+00  -1.97470383263030E-09
     -1.21750381589557E-34  -1.97470383263030E-09   5.74742617725299E-18   0.00000000000000E+00   0.00000000000000E+00
      0.00000000000000E+00   0.00000000000000E+00   0.00000000000000E+00   0.00000000000000E+00   0.00000000000000E+00
      1.81789414956421E-18   0.00000000000000E+00   0.00000000000000E+00   0.00000000000000E+00   0.00000000000000E+00
      3.08966635668102E-19   2.20448460844148E-34   3.08966635668102E-19  -1.40144562098266E-17   2.27876403946559E-02
      2.27876400442343E-02   0.00000000000000E+00   0.00000000000000E+00   1.97470383232134E-09  -9.86980792545912E-35
      1.97470383232134E-09   6.44913588300939E-18
      2.99636668583222E-02
      0.00000000000000E+00   3.60859439316029E-10   0.00000000000000E+00   0.00000000000000E+00  -2.04815399786941E-09
     -1.20946909228275E-34  -2.04815399786941E-09   5.74474212493265E-18   0.00000000000000E+00   0.00000000000000E+00
      0.00000000000000E+00   0.00000000000000E+00   0.00000000000000E+00   0.00000000000000E+00   0.00000000000000E+00
      1.77639561689137E-18   0.00000000000000E+00   0.00000000000000E+00   0.00000000000000E+00   0.00000000000000E+00
     -1.48271201423643E-18   2.17838434712062E-34  -1.48271201423643E-18  -1.40134705581028E-17   2.57687534981571E-02
      2.57687531347397E-02   0.00000000000000E+00   0.00000000000000E+00   2.04815399935212E-09  -9.68915254837871E-35
      2.04815399935212E-09   6.49233281627873E-18
      3.37536090984323E-02
      0.00000000000000E+00   3.71696143408234E-10   0.00000000000000E+00   0.00000000000000E+00  -2.10989671245925E-09
     -1.53855444805826E-34  -2.10989671245925E-09   5.74180832874069E-18   0.00000000000000E+00   0.00000000000000E+00
      0.00000000000000E+00   0.00000000000000E+00   0.00000000000000E+00   0.00000000000000E+00   0.00000000000000E+00
      1.73104412145264E-18   0.00000000000000E+00   0.00000000000000E+00   0.00000000000000E+00   0.00000000000000E+00
     -1.10162073820435E-18   2.30585738898496E-34  -1.10162073820435E-18  -1.40124448433168E-17   2.90281038246517E-02
      2.90281034503330E-02   0.00000000000000E+00   0.00000000000000E+00   2.10989671356087E-09  -7.67302940926701E-35
      2.10989671356087E-09   6.53959239312344E-18
      3.78972792809526E-02
      0.00000000000000E+00   3.80760787076340E-10   0.00000000000000E+00   0.00000000000000E+00  -2.16167493429523E-09
     -1.34619948517827E-34  -2.16167493429523E-09   5.73860157469076E-18   0.00000000000000E+00   0.00000000000000E+00
      0.00000000000000E+00   0.00000000000000E+00   0.00000000000000E+00   0.00000000000000E+00   0.00000000000000E+00
      1.68148287467091E-18   0.00000000000000E+00   0.00000000000000E+00   0.00000000000000E+00   0.00000000000000E+00
     -1.65706238391236E-18   1.99398216468044E-34  -1.65706238391236E-18  -1.40113830994301E-17   3.25916601816192E-02
      3.25916597981879E-02   0.00000000000000E+00   0.00000000000000E+00   2.16167493595230E-09  -6.47782679502169E-35
      2.16167493595230E-09   6.59129865006844E-18
      4.24276920138415E-02
      0.00000000000000E+00   3.88474346721651E-10   0.00000000000000E+00   0.00000000000000E+00  -2.20589109686750E-09
     -1.32449070991613E-34  -2.20589109686750E-09   5.73509648858975E-18   0.00000000000000E+00   0.00000000000000E+00
      0.00000000000000E+00   0.00000000000000E+00   0.00000000000000E+00   0.00000000000000E+00   0.00000000000000E+00
      1.62732205816580E-18   0.00000000000000E+00   0.00000000000000E+00   0.00000000000000E+00   0.00000000000000E+00
     -1.50247894041978E-18   1.89931865110604E-34  -1.50247894041978E-18  -1.40102906556283E-17   3.64878151319037E-02
      3.64878147407258E-02   0.00000000000000E+00   0.00000000000000E+00   2.20589109836998E-09  -5.74827941189903E-35
      2.20589109836998E-09   6.64787210887274E-18
      4.73809432684667E-02
      0.00000000000000E+00   3.95345381886871E-10   0.00000000000000E+00   0.00000000000000E+00  -2.24544260328095E-09
     -1.31106878067757E-34  -2.24544260328095E-09   5.73126533462628E-18   0.00000000000000E+00   0.00000000000000E+00
      0.00000000000000E+00   0.00000000000000E+00   0.00000000000000E+00   0.00000000000000E+00   0.00000000000000E+00
      1.56813574352943E-18   0.00000000000000E+00   0.00000000000000E+00   0.00000000000000E+00   0.00000000000000E+00
     -6.12871833939495E-18   1.82443313890231E-34  -6.12871833939495E-18  -1.40091743132456E-17   4.07476112108814E-02
      4.07476108128126E-02   0.00000000000000E+00   0.00000000000000E+00   2.24544260940967E-09  -5.13364358224740E-35
      2.24544260940967E-09   6.70977323508987E-18
      5.27964979735236E-02
      0.00000000000000E+00   4.01913747424866E-10   0.00000000000000E+00   0.00000000000000E+00  -2.28340311122406E-09
     -9.06088233689052E-35  -2.28340311122406E-09   5.72707779629484E-18   0.00000000000000E+00   0.00000000000000E+00
      0.00000000000000E+00   0.00000000000000E+00   0.00000000000000E+00   0.00000000000000E+00   0.00000000000000E+00
      1.50345852499340E-18   0.00000000000000E+00   0.00000000000000E+00   0.00000000000000E+00   0.00000000000000E+00
     -1.23790398725941E-17   1.38281208593141E-34  -1.23790398725941E-17  -1.40080425342782E-17   4.54049882572303E-02
      4.54049878525849E-02   0.00000000000000E+00   0.00000000000000E+00   2.28340312360310E-09  -4.76723852242356E-35
      2.28340312360310E-09   6.77750621298995E-18
      5.87175044510525E-02
      0.00000000000000E+00   4.08670619581736E-10   0.00000000000000E+00   0.00000000000000E+00  -2.32256320068245E-09
     -1.30357415654361E-34  -2.32256320068245E-09   5.72250073833079E-18   0.00000000000000E+00   0.00000000000000E+00
      0.00000000000000E+00   0.00000000000000E+00   0.00000000000000E+00   0.00000000000000E+00   0.00000000000000E+00
      1.43278185107012E-18   0.00000000000000E+00   0.00000000000000E+00   0.00000000000000E+00   0.00000000000000E+00
     -2.95404562032872E-17   1.64527454110365E-34  -2.95404562032872E-17  -1.40069056560478E-17   5.04970538279052E-02
      5.04970534165042E-02   0.00000000000000E+00   0.00000000000000E+00   2.32256323022291E-09  -3.41700384560046E-35
      2.32256323022291E-09   6.85162306664678E-18
      6.51911381998174E-02
      0.00000000000000E+00   4.15999153992050E-10   0.00000000000000E+00   0.00000000000000E+00  -2.36509548693106E-09
     -1.12644716531079E-34  -2.36509548693106E-09   5.71749794601006E-18   0.00000000000000E+00   0.00000000000000E+00
      0.00000000000000E+00   0.00000000000000E+00   0.00000000000000E+00   0.00000000000000E+00   0.00000000000000E+00
      1.35555003184827E-18   0.00000000000000E+00   0.00000000000000E+00   0.00000000000000E+00   0.00000000000000E+00
      5.87175284600422E-19   1.39808959019775E-34   5.87175284600422E-19  -1.40057761320284E-17   5.60643788518430E-02
      5.60643784331236E-02   0.00000000000000E+00   0.00000000000000E+00   2.36509548634388E-09  -2.71642424886957E-35
      2.36509548634388E-09   6.93272815417007E-18
      7.22258202068086E-02
      0.00000000000000E+00   4.24123246171985E-10   0.00000000000000E+00   0.00000000000000E+00  -2.41227588782160E-09
     -1.21182141501326E-34  -2.41227588782160E-09   5.71206317791442E-18   0.00000000000000E+00   0.00000000000000E+00
      0.00000000000000E+00   0.00000000000000E+00   0.00000000000000E+00   0.00000000000000E+00   0.00000000000000E+00
      1.27167036908469E-18   0.00000000000000E+00   0.00000000000000E+00   0.00000000000000E+00   0.00000000000000E+00
      8.74866740174028E-19   1.44560358643952E-34   8.74866740174028E-19  -1.40046751872453E-17   6.21142053778554E-02
      6.21142049510314E-02   0.00000000000000E+00   0.00000000000000E+00   2.41227588694673E-09  -2.33782171426259E-35
      2.41227588694673E-09   7.02094164024623E-18
      7.98701746544057E-02
      0.00000000000000E+00   4.33208373008581E-10   0.00000000000000E+00   0.00000000000000E+00  -2.46505988486760E-09
     -1.45647984456552E-34  -2.46505988486760E-09   5.70615915424230E-18   0.00000000000000E+00   0.00000000000000E+00
      0.00000000000000E+00   0.00000000000000E+00   0.00000000000000E+00   0.00000000000000E+00   0.00000000000000E+00
      1.18057124496389E-18   0.00000000000000E+00   0.00000000000000E+00   0.00000000000000E+00   0.00000000000000E+00
      4.55812149884383E-19   1.61636082976743E-34   4.55812149884384E-19  -1.40036190392075E-17   6.86883502027889E-02
      6.86883497669104E-02   0.00000000000000E+00   0.00000000000000E+00   2.46505988441179E-09  -1.59880985201909E-35
      2.46505988441179E-09   7.11688864000127E-18
      8.81770398207946E-02
      0.00000000000000E+00   4.43326744626323E-10   0.00000000000000E+00   0.00000000000000E+00  -2.52386814045872E-09
     -1.08669765578100E-34  -2.52386814045872E-09   5.69974539270695E-18   0.00000000000000E+00   0.00000000000000E+00
      0.00000000000000E+00   0.00000000000000E+00   0.00000000000000E+00   0.00000000000000E+00   0.00000000000000E+00
      1.08163201232503E-18   0.00000000000000E+00   0.00000000000000E+00   0.00000000000000E+00   0.00000000000000E+00
      9.57791027864497E-19   1.21789038861995E-34   9.57791027864497E-19  -1.40026264485253E-17   7.58322542458833E-02
      7.58322537999234E-02   0.00000000000000E+00   0.00000000000000E+00   2.52386813950093E-09  -1.31192732838948E-35
      2.52386813950093E-09   7.22124904349336E-18
      9.72038333016038E-02
      0.00000000000000E+00   4.54520601091887E-10   0.00000000000000E+00   0.00000000000000E+00  -2.58895855195635E-09
     -1.27201561343535E-34  -2.58895855195635E-09   5.69277792768418E-18   0.00000000000000E+00   0.00000000000000E+00
      0.00000000000000E+00   0.00000000000000E+00   0.00000000000000E+00   0.00000000000000E+00   0.00000000000000E+00
      9.74178866237684E-19   0.00000000000000E+00   0.00000000000000E+00   0.00000000000000E+00   0.00000000000000E+00
     -6.05252371957549E-19   1.36882403690472E-34  -6.05252371957549E-19  -1.40017190010028E-17   8.35952966393793E-02
      8.35952961822689E-02   0.00000000000000E+00   0.00000000000000E+00   2.58895855256160E-09  -9.68084234693701E-36
      2.58895855256160E-09   7.33476220708097E-18
      1.07012948884083E-01
      0.00000000000000E+00   4.66882398246000E-10   0.00000000000000E+00   0.00000000000000E+00  -2.66089134686352E-09
     -9.33873185028312E-35  -2.66089134686352E-09   5.68520899949290E-18   0.00000000000000E+00   0.00000000000000E+00
      0.00000000000000E+00   0.00000000000000E+00   0.00000000000000E+00   0.00000000000000E+00   0.00000000000000E+00
      8.57480227123483E-19   0.00000000000000E+00   0.00000000000000E+00   0.00000000000000E+00   0.00000000000000E+00
     -2.48259671309651E-18   9.98979769417656E-35  -2.48259671309651E-18  -1.40009212173695E-17   9.20311360403115E-02
      9.20311355708966E-02   0.00000000000000E+00   0.00000000000000E+00   2.66089134934611E-09  -6.51065843893426E-36
      2.66089134934611E-09   7.45823199075310E-18
      1.17012948884083E-01
      0.00000000000000E+00   4.79718425172141E-10   0.00000000000000E+00   0.00000000000000E+00  -2.73564394246293E-09
     -1.23416822391510E-34  -2.73564394246293E-09   5.67749517681651E-18   0.00000000000000E+00   0.00000000000000E+00
      0.00000000000000E+00   0.00000000000000E+00   0.00000000000000E+00   0.00000000000000E+00   0.00000000000000E+00
      7.38578074604099E-19   0.00000000000000E+00   0.00000000000000E+00   0.00000000000000E+00   0.00000000000000E+00
     -2.54680582993284E-18   1.28484806321116E-34  -2.54680582993284E-18  -1.40002957231756E-17   1.00631136040312E-01
      1.00631135558134E-01   0.00000000000000E+00   0.00000000000000E+00   2.73564394500973E-09  -5.06798392960676E-36
      2.73564394500973E-09   7.58422247175504E-18
      1.27012948884083E-01
      0.00000000000000E+00   4.92828128806098E-10   0.00000000000000E+00   0.00000000000000E+00  -2.81205019142045E-09
     -1.54069485509391E-34  -2.81205019142045E-09   5.66978363997346E-18   0.00000000000000E+00   0.00000000000000E+00
      0.00000000000000E+00   0.00000000000000E+00   0.00000000000000E+00   0.00000000000000E+00   0.00000000000000E+00
      6.19740079821012E-19   0.00000000000000E+00   0.00000000000000E+00   0.00000000000000E+00   0.00000000000000E+00
     -1.48425282871737E-18   1.57735871173113E-34  -1.48425282871737E-18  -1.39998467726797E-17   1.09231136040312E-01
      1.09231135545106E-01   0.00000000000000E+00   0.00000000000000E+00   2.81205019290470E-09  -3.66638566372198E-36
      2.81205019290470E-09   7.71032305288529E-18
      1.37012948884083E-01
      0.00000000000000E+00   5.06244844307245E-10   0.00000000000000E+00   0.00000000000000E+00  -2.89030290518536E-09
     -1.45669740332346E-34  -2.89030290518536E-09   5.66207427777410E-18   0.00000000000000E+00   0.00000000000000E+00
      0.00000000000000E+00   0.00000000000000E+00   0.00000000000000E+00   0.00000000000000E+00   0.00000000000000E+00
      5.00962961002790E-19   0.00000000000000E+00   0.00000000000000E+00   0.00000000000000E+00   0.00000000000000E+00
     -6.32345618918119E-20   1.48350094755164E-34  -6.32345618918117E-20  -1.39995626003246E-17   1.17831136040312E-01
      1.17831135531771E-01   0.00000000000000E+00   0.00000000000000E+00   2.89030290524859E-09  -2.68035442281850E-36
      2.89030290524859E-09   7.83652536154766E-18
      1.47012948884083E-01
      0.00000000000000E+00   5.19991579902311E-10   0.00000000000000E+00   0.00000000000000E+00  -2.97053591769384E-09
     -9.39596889854443E-35  -2.97053591769384E-09   5.65436699239646E-18   0.00000000000000E+00   0.00000000000000E+00
      0.00000000000000E+00   0.00000000000000E+00   0.00000000000000E+00   0.00000000000000E+00   0.00000000000000E+00
      3.82243987006621E-19   0.00000000000000E+00   0.00000000000000E+00   0.00000000000000E+00   0.00000000000000E+00
      2.06755322767060E-18   9.57143939068211E-35   2.06755322767060E-18  -1.39994326286093E-17   1.26431136040312E-01
      1.26431135518103E-01   0.00000000000000E+00   0.00000000000000E+00   2.97053591562629E-09  -1.75470492137681E-36
      2.97053591562629E-09   7.96282164920622E-18
      1.57012948884083E-01
      0.00000000000000E+00   5.34082156656165E-10   0.00000000000000E+00   0.00000000000000E+00  -3.05283024107913E-09
     -1.11396919428233E-34  -3.05283024107913E-09   5.64666169683288E-18   0.00000000000000E+00   0.00000000000000E+00
      0.00000000000000E+00   0.00000000000000E+00   0.00000000000000E+00   0.00000000000000E+00   0.00000000000000E+00
      2.63580864167721E-19   0.00000000000000E+00   0.00000000000000E+00   0.00000000000000E+00   0.00000000000000E+00
     -2.54300501831018E-21   1.12789776822248E-34  -2.54300501831007E-21  -1.39994472803990E-17   1.35031136040312E-01
      1.35031135504090E-01   0.00000000000000E+00   0.00000000000000E+00   3.05283024108167E-09  -1.39285739401449E-36
      3.05283024108167E-09   8.08920471939836E-18
      1.67012948884083E-01
      0.00000000000000E+00   5.48523518030940E-10   0.00000000000000E+00   0.00000000000000E+00  -3.13722790578167E-09
     -1.12556084818512E-34  -3.13722790578167E-09   5.63895831396043E-18   0.00000000000000E+00   0.00000000000000E+00
      0.00000000000000E+00   0.00000000000000E+00   0.00000000000000E+00   0.00000000000000E+00   0.00000000000000E+00
      1.44971654928578E-19   0.00000000000000E+00   0.00000000000000E+00   0.00000000000000E+00   0.00000000000000E+00
     -1.65285975097474E-18   1.13630727457226E-34  -1.65285975097474E-18  -1.39995978370539E-17   1.43631136040312E-01
      1.43631135489730E-01   0.00000000000000E+00   0.00000000000000E+00   3.13722790743453E-09  -1.07464263871411E-36
      3.13722790743453E-09   8.21566786816491E-18
      1.77012948884083E-01
      0.00000000000000E+00   5.63319094539576E-10   0.00000000000000E+00   0.00000000000000E+00  -3.22375120011317E-09
     -1.41143572142592E-34  -3.22375120011317E-09   5.63125677717690E-18   0.00000000000000E+00   0.00000000000000E+00
      0.00000000000000E+00   0.00000000000000E+00   0.00000000000000E+00   0.00000000000000E+00   0.00000000000000E+00
      2.64147452086558E-20   0.00000000000000E+00   0.00000000000000E+00   0.00000000000000E+00   0.00000000000000E+00
      6.77519047830018E-19   1.41798848249481E-34   6.77519047830018E-19  -1.39998763592461E-17   1.52231136040312E-01
      1.52231135475022E-01   0.00000000000000E+00   0.00000000000000E+00   3.22375119943565E-09  -6.55276106889531E-37
      3.22375119943565E-09   8.34220483686049E-18
      1.87012948884083E-01
      0.00000000000000E+00   5.78472084619044E-10   0.00000000000000E+00   0.00000000000000E+00  -3.31242148979011E-09