DF-ISE text

Info {
  version   = 1.0
  type      = xyplot
  datasets  = [
    "time"
    "source OuterVoltage" "source InnerVoltage" "source QuasiFermiPotential" "source DisplacementCurrent" "source eCurrent"
    "source hCurrent" "source TotalCurrent" "source Charge" "gate OuterVoltage" "gate InnerVoltage"
    "gate QuasiFermiPotential" "gate DisplacementCurrent" "gate eCurrent" "gate hCurrent" "gate TotalCurrent"
    "gate Charge" "substrate OuterVoltage" "substrate InnerVoltage" "substrate QuasiFermiPotential" "substrate DisplacementCurrent"
    "substrate eCurrent" "substrate hCurrent" "substrate TotalCurrent" "substrate Charge" "drain OuterVoltage"
    "drain InnerVoltage" "drain QuasiFermiPotential" "drain DisplacementCurrent" "drain eCurrent" "drain hCurrent"
    "drain TotalCurrent" "drain Charge" ]
  functions = [
    Time
    OuterVoltage InnerVoltage QuasiFermiPotential DisplacementCurrent eCurrent
    hCurrent TotalCurrent Charge OuterVoltage InnerVoltage
    QuasiFermiPotential DisplacementCurrent eCurrent hCurrent TotalCurrent
    Charge OuterVoltage InnerVoltage QuasiFermiPotential DisplacementCurrent
    eCurrent hCurrent TotalCurrent Charge OuterVoltage
    InnerVoltage QuasiFermiPotential DisplacementCurrent eCurrent hCurrent
    TotalCurrent Charge ]
}

Data {
      0.00000000000000E+00
      0.00000000000000E+00   0.00000000000000E+00   0.00000000000000E+00   0.00000000000000E+00   2.29613195830493E-21
     -1.73331416671234E-34   2.29613195830476E-21   6.68481989960298E-18   0.00000000000000E+00   0.00000000000000E+00
      0.00000000000000E+00   0.00000000000000E+00   0.00000000000000E+00   0.00000000000000E+00   0.00000000000000E+00
      3.98470220247709E-18   0.00000000000000E+00   0.00000000000000E+00   0.00000000000000E+00   0.00000000000000E+00
     -3.77741340278263E-22   3.38293193039687E-34  -3.77741340277925E-22  -1.61020253528557E-17   0.00000000000000E+00
      0.00000000000000E+00   0.00000000000000E+00   0.00000000000000E+00  -1.91839061802667E-21  -1.64961776368453E-34
     -1.91839061802684E-21   5.43250325077562E-18
      0.00000000000000E+00
      0.00000000000000E+00  -4.52437129101117E-19   0.00000000000000E+00   0.00000000000000E+00  -2.09161270736698E-18
     -1.58015930077704E-34  -2.09161270736698E-18   6.68012382047214E-18   0.00000000000000E+00   0.00000000000000E+00
      0.00000000000000E+00   0.00000000000000E+00   0.00000000000000E+00   0.00000000000000E+00   0.00000000000000E+00
      3.97598408692757E-18   0.00000000000000E+00   0.00000000000000E+00   0.00000000000000E+00   0.00000000000000E+00
      2.25537048011058E-18   3.27620143736882E-34   2.25537048011058E-18  -1.60846767851840E-17   0.00000000000000E+00
      0.00000000000000E+00   0.00000000000000E+00   0.00000000000000E+00  -1.63757772743604E-19  -1.69604213659178E-34
     -1.63757772743604E-19   5.42856887778432E-18
      1.00000000000000E-03
      0.00000000000000E+00   6.95384511256476E-12   0.00000000000000E+00   0.00000000000000E+00  -3.94558362934795E-11
     -1.57848351674114E-34  -3.94558362934795E-11   6.67984950318546E-18   0.00000000000000E+00   0.00000000000000E+00
      0.00000000000000E+00   0.00000000000000E+00   0.00000000000000E+00   0.00000000000000E+00   0.00000000000000E+00
      3.97084572025581E-18   0.00000000000000E+00   0.00000000000000E+00   0.00000000000000E+00   0.00000000000000E+00
      3.08967841975974E-19   3.09634558933657E-34   3.08967841975974E-19  -1.60846239652790E-17   4.30000000000000E-04
      4.29999993034120E-04   0.00000000000000E+00   0.00000000000000E+00   3.94558359845117E-11  -1.51786207259543E-34
      3.94558359845117E-11   5.43392874183780E-18
      2.08666666666667E-03
      0.00000000000000E+00   1.42980977713938E-11   0.00000000000000E+00   0.00000000000000E+00  -8.11257442312930E-11
     -1.72158565355524E-34  -8.11257442312930E-11   6.67955142478714E-18   0.00000000000000E+00   0.00000000000000E+00
      0.00000000000000E+00   0.00000000000000E+00   0.00000000000000E+00   0.00000000000000E+00   0.00000000000000E+00
      3.96526256129259E-18   0.00000000000000E+00   0.00000000000000E+00   0.00000000000000E+00   0.00000000000000E+00
      3.27616539319289E-17   3.43665179425997E-34   3.27616539319289E-17  -1.60845679739568E-17   8.97266666666667E-04
      8.97266652343858E-04   0.00000000000000E+00   0.00000000000000E+00   8.11257114696390E-11  -1.71506614070473E-34
      8.11257114696390E-11   5.43975398787713E-18
      3.28200000000000E-03
      0.00000000000000E+00   2.21177419570688E-11   0.00000000000000E+00   0.00000000000000E+00  -1.25491537205709E-10
     -1.70070756385380E-34  -1.25491537205709E-10   6.67922355419386E-18   0.00000000000000E+00   0.00000000000000E+00
      0.00000000000000E+00   0.00000000000000E+00   0.00000000000000E+00   0.00000000000000E+00   0.00000000000000E+00
      3.95912172242051E-18   0.00000000000000E+00   0.00000000000000E+00   0.00000000000000E+00   0.00000000000000E+00
      5.13497034440888E-17   2.91707592718991E-34   5.13497034440888E-17  -1.60845080650491E-17   1.41126000000000E-03
      1.41125997784413E-03   0.00000000000000E+00   0.00000000000000E+00   1.25491485856005E-10  -1.21636836333612E-34
      1.25491485856005E-10   5.44616278843473E-18
      4.59686666666667E-03
      0.00000000000000E+00   3.04082854213351E-11   0.00000000000000E+00   0.00000000000000E+00  -1.72527108583690E-10
     -1.41196389993188E-34  -1.72527108583690E-10   6.67886291534654E-18   0.00000000000000E+00   0.00000000000000E+00
      0.00000000000000E+00   0.00000000000000E+00   0.00000000000000E+00   0.00000000000000E+00   0.00000000000000E+00
      3.95236756268972E-18   0.00000000000000E+00   0.00000000000000E+00   0.00000000000000E+00   0.00000000000000E+00
      7.64359527289744E-17   3.12239162788525E-34   7.64359527289744E-17  -1.60844441865574E-17   1.97665266666667E-03
      1.97665263620611E-03   0.00000000000000E+00   0.00000000000000E+00   1.72527032147737E-10  -1.71042772795337E-34
      1.72527032147737E-10   5.45321370852108E-18
      6.04322000000000E-03
      0.00000000000000E+00   3.91582254026223E-11   0.00000000000000E+00   0.00000000000000E+00  -2.22166795424343E-10
     -1.68436380400468E-34  -2.22166795424343E-10   6.67846623517822E-18   0.00000000000000E+00   0.00000000000000E+00
      0.00000000000000E+00   0.00000000000000E+00   0.00000000000000E+00   0.00000000000000E+00   0.00000000000000E+00
      3.94493890167771E-18   0.00000000000000E+00   0.00000000000000E+00   0.00000000000000E+00   0.00000000000000E+00
      8.76936128342036E-17   3.25112906811913E-34   8.76936128342036E-17  -1.60843763483900E-17   2.59858460000000E-03
      2.59858456077462E-03   0.00000000000000E+00   0.00000000000000E+00   2.22166707730730E-10  -1.56676526411446E-34
      2.22166707730730E-10   5.46097121153406E-18
      7.63420866666667E-03
      0.00000000000000E+00   4.83474361401167E-11   0.00000000000000E+00   0.00000000000000E+00  -2.74295720655342E-10
     -1.79481878333491E-34  -2.74295720655342E-10   6.67802991402383E-18   0.00000000000000E+00   0.00000000000000E+00
      0.00000000000000E+00   0.00000000000000E+00   0.00000000000000E+00   0.00000000000000E+00   0.00000000000000E+00
      3.93676847005785E-18   0.00000000000000E+00   0.00000000000000E+00   0.00000000000000E+00   0.00000000000000E+00
      1.61429693358863E-16   3.37312988879326E-34   1.61429693358863E-16  -1.60843046412799E-17   3.28270972666667E-03
      3.28270967823651E-03   0.00000000000000E+00   0.00000000000000E+00   2.74295559225649E-10  -1.57831110545835E-34
      2.74295559225649E-10   5.46950625719822E-18
      9.38429620000000E-03
      0.00000000000000E+00   5.79455753901921E-11   0.00000000000000E+00   0.00000000000000E+00  -3.28741275201297E-10
     -1.68537207456283E-34  -3.28741275201297E-10   6.67754999308610E-18   0.00000000000000E+00   0.00000000000000E+00
      0.00000000000000E+00   0.00000000000000E+00   0.00000000000000E+00   0.00000000000000E+00   0.00000000000000E+00
      3.92778230596044E-18   0.00000000000000E+00   0.00000000000000E+00   0.00000000000000E+00   0.00000000000000E+00
      2.00134952408754E-16   3.20397867409939E-34   2.00134952408754E-16  -1.60842292598331E-17   4.03524736600000E-03
      4.03524730795552E-03   0.00000000000000E+00   0.00000000000000E+00   3.28741075066344E-10  -1.51860659953656E-34
      3.28741075066344E-10   5.47889696078656E-18
      1.13093924866667E-02
      0.00000000000000E+00   6.79107506417539E-11   0.00000000000000E+00   0.00000000000000E+00  -3.85265233650739E-10
     -1.59054133892176E-34  -3.85265233650739E-10   6.67702211866655E-18   0.00000000000000E+00   0.00000000000000E+00
      0.00000000000000E+00   0.00000000000000E+00   0.00000000000000E+00   0.00000000000000E+00   0.00000000000000E+00
      3.91789909188189E-18   0.00000000000000E+00   0.00000000000000E+00   0.00000000000000E+00   0.00000000000000E+00
      3.36942653476924E-16   3.08519254252874E-34   3.36942653476924E-16  -1.60841505305730E-17   4.86303876926667E-03
      4.86303870124027E-03   0.00000000000000E+00   0.00000000000000E+00   3.85264896708086E-10  -1.49465120360698E-34
      3.85264896708086E-10   5.48922932002461E-18
      1.34269984020000E-02
      0.00000000000000E+00   7.81883007030495E-11   0.00000000000000E+00   0.00000000000000E+00  -4.43557035198837E-10
     -1.53985633960240E-34  -4.43557035198837E-10   6.67644150283789E-18   0.00000000000000E+00   0.00000000000000E+00
      0.00000000000000E+00   0.00000000000000E+00   0.00000000000000E+00   0.00000000000000E+00   0.00000000000000E+00
      3.90702942615546E-18   0.00000000000000E+00   0.00000000000000E+00   0.00000000000000E+00   0.00000000000000E+00
      4.72493008493179E-16   2.90130495581479E-34   4.72493008493179E-16  -1.60840689456652E-17   5.77360931286000E-03
      5.77360923453886E-03   0.00000000000000E+00   0.00000000000000E+00   4.43556562705828E-10  -1.36144861621238E-34
      4.43556562705828E-10   5.50059801667181E-18
      1.57563649088667E-02
      0.00000000000000E+00   8.87098786116084E-11   0.00000000000000E+00   0.00000000000000E+00  -5.03228556716074E-10
     -1.54747336349555E-34  -5.03228556716074E-10   6.67580288020594E-18   0.00000000000000E+00   0.00000000000000E+00
      0.00000000000000E+00   0.00000000000000E+00   0.00000000000000E+00   0.00000000000000E+00   0.00000000000000E+00
      3.89507502268246E-18   0.00000000000000E+00   0.00000000000000E+00   0.00000000000000E+00   0.00000000000000E+00
      6.87722391693315E-16   3.03839090410303E-34   6.87722391693315E-16  -1.60839852034937E-17   6.77523691081267E-03
      6.77523682195243E-03   0.00000000000000E+00   0.00000000000000E+00   5.03227868993682E-10  -1.49091754060747E-34
      5.03227868993682E-10   5.51310730060530E-18
      1.83186680664200E-02
      0.00000000000000E+00   9.93928431063034E-11   0.00000000000000E+00   0.00000000000000E+00  -5.63810247509681E-10
     -1.59523219688360E-34  -5.63810247509681E-10   6.67510046036910E-18   0.00000000000000E+00   0.00000000000000E+00
      0.00000000000000E+00   0.00000000000000E+00   0.00000000000000E+00   0.00000000000000E+00   0.00000000000000E+00
      3.88192783179640E-18   0.00000000000000E+00   0.00000000000000E+00   0.00000000000000E+00   0.00000000000000E+00
      2.35220275675439E-19   2.68746441766389E-34   2.35220275675439E-19  -1.60839002571513E-17   7.87702726856060E-03
      7.87702716899994E-03   0.00000000000000E+00   0.00000000000000E+00   5.63810247274460E-10  -1.09223222078028E-34
      5.63810247274460E-10   5.52687196498571E-18
      2.11201195186783E-02
      0.00000000000000E+00   1.10078493267797E-10   0.00000000000000E+00   0.00000000000000E+00  -6.24404198259003E-10
     -1.85451704880858E-34  -6.24404198259003E-10   6.67433255774121E-18   0.00000000000000E+00   0.00000000000000E+00
      0.00000000000000E+00   0.00000000000000E+00   0.00000000000000E+00   0.00000000000000E+00   0.00000000000000E+00
      3.86755669341913E-18   0.00000000000000E+00   0.00000000000000E+00   0.00000000000000E+00   0.00000000000000E+00
      1.35077940869372E-15   3.18118922170192E-34   1.35077940869372E-15  -1.60838158597440E-17   9.08165139303168E-03
      9.08165128276743E-03   0.00000000000000E+00   0.00000000000000E+00   6.24402847479594E-10  -1.32667217289334E-34
      6.24402847479594E-10   5.54192660858370E-18
      2.42017161161625E-02
      0.00000000000000E+00   1.20725635147921E-10   0.00000000000000E+00   0.00000000000000E+00  -6.84775135218496E-10
     -1.53752450307749E-34  -6.84775135218496E-10   6.67348795490791E-18   0.00000000000000E+00   0.00000000000000E+00
      0.00000000000000E+00   0.00000000000000E+00   0.00000000000000E+00   0.00000000000000E+00   0.00000000000000E+00
      3.85175213592257E-18   0.00000000000000E+00   0.00000000000000E+00   0.00000000000000E+00   0.00000000000000E+00
      1.93387018103635E-15   2.64644275028908E-34   1.93387018103635E-15  -1.60837330957621E-17   1.04067379299499E-02
      1.04067378090209E-02   0.00000000000000E+00   0.00000000000000E+00   6.84773201348315E-10  -1.10891824721159E-34
      6.84773201348315E-10   5.55849300493169E-18
      2.75914723733950E-02
      0.00000000000000E+00   1.31213934043449E-10   0.00000000000000E+00   0.00000000000000E+00  -7.44241100754015E-10
     -1.56751123987129E-34  -7.44241100754015E-10   6.67255899799203E-18   0.00000000000000E+00   0.00000000000000E+00
      0.00000000000000E+00   0.00000000000000E+00   0.00000000000000E+00   0.00000000000000E+00   0.00000000000000E+00
      3.83437149707089E-18   0.00000000000000E+00   0.00000000000000E+00   0.00000000000000E+00   0.00000000000000E+00
     -2.22082618082637E-19   2.66269643243123E-34  -2.22082618082637E-19  -1.60836540420955E-17   1.18643331205599E-02
      1.18643329891257E-02   0.00000000000000E+00   0.00000000000000E+00   7.44241100976097E-10  -1.09518519255994E-34
      7.44241100976097E-10   5.57672354703253E-18
      3.12976058813026E-02
      0.00000000000000E+00   1.41357212980630E-10   0.00000000000000E+00   0.00000000000000E+00  -8.01749995016846E-10
     -1.71260131663078E-34  -8.01749995016846E-10   6.67154346216543E-18   0.00000000000000E+00   0.00000000000000E+00
      0.00000000000000E+00   0.00000000000000E+00   0.00000000000000E+00   0.00000000000000E+00   0.00000000000000E+00
      3.81537378571864E-18   0.00000000000000E+00   0.00000000000000E+00   0.00000000000000E+00   0.00000000000000E+00
      3.58046444853753E-19   2.77636338112163E-34   3.58046444853753E-19  -1.60835817198160E-17   1.34579705289601E-02
      1.34579703873659E-02   0.00000000000000E+00   0.00000000000000E+00   8.01749994658800E-10  -1.06376206449085E-34
      8.01749994658800E-10   5.59666447193193E-18
      3.53496451832816E-02
      0.00000000000000E+00   1.51035848034966E-10   0.00000000000000E+00   0.00000000000000E+00  -8.56624860278195E-10
     -1.54466759834103E-34  -8.56624860278195E-10   6.67043328629993E-18   0.00000000000000E+00   0.00000000000000E+00
      0.00000000000000E+00   0.00000000000000E+00   0.00000000000000E+00   0.00000000000000E+00   0.00000000000000E+00
      3.79460891745190E-18   0.00000000000000E+00   0.00000000000000E+00   0.00000000000000E+00   0.00000000000000E+00
     -2.23295143844213E-19   2.59705474517280E-34  -2.23295143844213E-19  -1.60835191800021E-17   1.52003474288111E-02
      1.52003472775222E-02   0.00000000000000E+00   0.00000000000000E+00   8.56624860501490E-10  -1.05238714683178E-34
      8.56624860501490E-10   5.61847697625022E-18
      3.97798748201120E-02
      0.00000000000000E+00   1.60134468190975E-10   0.00000000000000E+00   0.00000000000000E+00  -9.08214571263145E-10
     -1.78499889741352E-34  -9.08214571263145E-10   6.66921965943588E-18   0.00000000000000E+00   0.00000000000000E+00
      0.00000000000000E+00   0.00000000000000E+00   0.00000000000000E+00   0.00000000000000E+00   0.00000000000000E+00
      3.77191292102006E-18   0.00000000000000E+00   0.00000000000000E+00   0.00000000000000E+00   0.00000000000000E+00
     -5.52702821444288E-19   2.91808448758055E-34  -5.52702821444288E-19  -1.60834701386448E-17   1.71053461726481E-02
      1.71053460122454E-02   0.00000000000000E+00   0.00000000000000E+00   9.08214571815848E-10  -1.13308559016704E-34
      9.08214571815848E-10   5.64233755818889E-18
      4.46235925563798E-02
      0.00000000000000E+00   1.68547744727690E-10   0.00000000000000E+00   0.00000000000000E+00  -9.55925991713658E-10
     -1.56892365905577E-34  -9.55925991713658E-10   6.66789295098289E-18   0.00000000000000E+00   0.00000000000000E+00
      0.00000000000000E+00   0.00000000000000E+00   0.00000000000000E+00   0.00000000000000E+00   0.00000000000000E+00
      3.74710665536606E-18   0.00000000000000E+00   0.00000000000000E+00   0.00000000000000E+00   0.00000000000000E+00
     -1.90965333277378E-19   2.34906617237279E-34  -1.90965333277378E-19  -1.60834390892990E-17   1.91881447992433E-02
      1.91881446304129E-02   0.00000000000000E+00   0.00000000000000E+00   9.55925991904623E-10  -7.80142513317020E-35
      9.55925991904623E-10   5.66843948295003E-18
      4.99193906146993E-02
      0.00000000000000E+00   1.76187717080656E-10   0.00000000000000E+00   0.00000000000000E+00  -9.99265350585824E-10
     -1.52103478307285E-34  -9.99265350585824E-10   6.66644263434784E-18   0.00000000000000E+00   0.00000000000000E+00
      0.00000000000000E+00   0.00000000000000E+00   0.00000000000000E+00   0.00000000000000E+00   0.00000000000000E+00
      3.71999440536703E-18   0.00000000000000E+00   0.00000000000000E+00   0.00000000000000E+00   0.00000000000000E+00
     -3.27134597832192E-19   2.33402040920609E-34  -3.27134597832192E-19  -1.60834314279263E-17   2.14653379643207E-02
      2.14653377878370E-02   0.00000000000000E+00   0.00000000000000E+00   9.99265350912959E-10  -8.12985626133238E-35
      9.99265350912959E-10   5.69699438821145E-18
      5.57094631584620E-02
      0.00000000000000E+00   1.82991634482254E-10   0.00000000000000E+00   0.00000000000000E+00  -1.03788297240156E-09
     -1.59995749004189E-34  -1.03788297240156E-09   6.66485720338562E-18   0.00000000000000E+00   0.00000000000000E+00
      0.00000000000000E+00   0.00000000000000E+00   0.00000000000000E+00   0.00000000000000E+00   0.00000000000000E+00
      3.69036234638780E-18   0.00000000000000E+00   0.00000000000000E+00   0.00000000000000E+00   0.00000000000000E+00
     -1.04667187763509E-19   2.30390830213635E-34  -1.04667187763509E-19  -1.60834535935052E-17   2.39550691581387E-02
      2.39550689748389E-02   0.00000000000000E+00   0.00000000000000E+00   1.03788297250622E-09  -7.03950812094459E-35
      1.03788297250622E-09   5.72823404373168E-18
      6.20399424729758E-02
      0.00000000000000E+00   1.88929916140545E-10   0.00000000000000E+00   0.00000000000000E+00  -1.07161811825254E-09
     -1.74207828595841E-34  -1.07161811825254E-09   6.66312408101147E-18   0.00000000000000E+00   0.00000000000000E+00
      0.00000000000000E+00   0.00000000000000E+00   0.00000000000000E+00   0.00000000000000E+00   0.00000000000000E+00
      3.65797686531579E-18   0.00000000000000E+00   0.00000000000000E+00   0.00000000000000E+00   0.00000000000000E+00
     -8.81032133744557E-19   2.40055234433513E-34  -8.81032133744557E-19  -1.60835132255171E-17   2.66771752633796E-02
      2.66771750741309E-02   0.00000000000000E+00   0.00000000000000E+00   1.07161811913357E-09  -6.58474058376720E-35
      1.07161811913357E-09   5.76241227918985E-18
      6.89612665235110E-02
      0.00000000000000E+00   1.94014304156340E-10   0.00000000000000E+00   0.00000000000000E+00  -1.10054503783727E-09
     -1.52121079397498E-34  -1.10054503783727E-09   6.66122951911529E-18   0.00000000000000E+00   0.00000000000000E+00
      0.00000000000000E+00   0.00000000000000E+00   0.00000000000000E+00   0.00000000000000E+00   0.00000000000000E+00
      3.62258271680691E-18   0.00000000000000E+00   0.00000000000000E+00   0.00000000000000E+00   0.00000000000000E+00
     -2.72286884886612E-18   2.08853368837295E-34  -2.72286884886612E-18  -1.60836193296217E-17   2.96533446051097E-02
      2.96533444107673E-02   0.00000000000000E+00   0.00000000000000E+00   1.10054504056014E-09  -5.67322894397971E-35
      1.10054504056014E-09   5.79980709369951E-18
      7.65285808187627E-02
      0.00000000000000E+00   1.98302958417712E-10   0.00000000000000E+00   0.00000000000000E+00  -1.12500170530248E-09
     -1.48911574890252E-34  -1.12500170530248E-09   6.65915848914454E-18   0.00000000000000E+00   0.00000000000000E+00
      0.00000000000000E+00   0.00000000000000E+00   0.00000000000000E+00   0.00000000000000E+00   0.00000000000000E+00
      3.58390101078203E-18   0.00000000000000E+00   0.00000000000000E+00   0.00000000000000E+00   0.00000000000000E+00
     -4.49602429646519E-18   2.02880909219436E-34  -4.49602429646519E-18  -1.60837824665966E-17   3.29072897520680E-02
      3.29072895534291E-02   0.00000000000000E+00   0.00000000000000E+00   1.12500170979851E-09  -5.39693343291840E-35
      1.12500170979851E-09   5.84072296666998E-18
      8.48021777815713E-02
      0.00000000000000E+00   2.01902721952699E-10   0.00000000000000E+00   0.00000000000000E+00  -1.14560186436806E-09
     -1.36179853880519E-34  -1.14560186436806E-09   6.65689456234678E-18   0.00000000000000E+00   0.00000000000000E+00
      0.00000000000000E+00   0.00000000000000E+00   0.00000000000000E+00   0.00000000000000E+00   0.00000000000000E+00
      3.54162700117710E-18   0.00000000000000E+00   0.00000000000000E+00   0.00000000000000E+00   0.00000000000000E+00
     -8.31678678823075E-18   1.87323656686472E-34  -8.31678678823075E-18  -1.60840149478148E-17   3.64649364460757E-02
      3.64649362438311E-02   0.00000000000000E+00   0.00000000000000E+00   1.14560187268484E-09  -5.11438028059535E-35
      1.14560187268484E-09   5.88549338429086E-18
      9.38479771275754E-02
      0.00000000000000E+00   2.04964848565491E-10   0.00000000000000E+00   0.00000000000000E+00  -1.16321007888527E-09
     -1.50225684589628E-34  -1.16321007888527E-09   6.65441977885483E-18   0.00000000000000E+00   0.00000000000000E+00
      0.00000000000000E+00   0.00000000000000E+00   0.00000000000000E+00   0.00000000000000E+00   0.00000000000000E+00
      3.49542766602248E-18   0.00000000000000E+00   0.00000000000000E+00   0.00000000000000E+00   0.00000000000000E+00
     -1.45601383055356E-17   1.89439400282018E-34  -1.45601383055356E-17  -1.60843310480091E-17   4.03546301648574E-02
      4.03546299595470E-02   0.00000000000000E+00   0.00000000000000E+00   1.16321009344541E-09  -3.92137156923897E-35
      1.16321009344541E-09   5.93448360313185E-18
      1.03738051079207E-01
      0.00000000000000E+00   2.07673404610634E-10   0.00000000000000E+00   0.00000000000000E+00  -1.17887484517934E-09
     -1.68383730279730E-34  -1.17887484517934E-09   6.65171450459460E-18   0.00000000000000E+00   0.00000000000000E+00
      0.00000000000000E+00   0.00000000000000E+00   0.00000000000000E+00   0.00000000000000E+00   0.00000000000000E+00
      3.44493905438648E-18   0.00000000000000E+00   0.00000000000000E+00   0.00000000000000E+00   0.00000000000000E+00
     -1.57596412588965E-17   2.06396687410364E-34  -1.57596412588965E-17  -1.60847472283016E-17   4.46073619640588E-02
      4.46073617560388E-02   0.00000000000000E+00   0.00000000000000E+00   1.17887486093898E-09  -3.80129571306346E-35
      1.17887486093898E-09   5.98809366932047E-18
      1.13738051079206E-01
      0.00000000000000E+00   2.10043705084946E-10   0.00000000000000E+00   0.00000000000000E+00  -1.19265747959531E-09
     -1.37257084445519E-34  -1.19265747959531E-09   6.64897963993402E-18   0.00000000000000E+00   0.00000000000000E+00
      0.00000000000000E+00   0.00000000000000E+00   0.00000000000000E+00   0.00000000000000E+00   0.00000000000000E+00
      3.39391171446788E-18   0.00000000000000E+00   0.00000000000000E+00   0.00000000000000E+00   0.00000000000000E+00
     -1.50575404223549E-17   1.66612114410405E-34  -1.50575404223549E-17  -1.60852393185954E-17   4.89073619640588E-02
      4.89073617536705E-02   0.00000000000000E+00   0.00000000000000E+00   1.19265749465285E-09  -2.93550299648853E-35
      1.19265749465285E-09   6.04234796419352E-18
      1.23738051079206E-01
      0.00000000000000E+00   2.12246802441391E-10   0.00000000000000E+00   0.00000000000000E+00  -1.20551784235914E-09
     -1.45689873999692E-34  -1.20551784235914E-09   6.64624521829965E-18   0.00000000000000E+00   0.00000000000000E+00
      0.00000000000000E+00   0.00000000000000E+00   0.00000000000000E+00   0.00000000000000E+00   0.00000000000000E+00
      3.34290538190889E-18   0.00000000000000E+00   0.00000000000000E+00   0.00000000000000E+00   0.00000000000000E+00
     -1.39354724503564E-17   1.69565714576061E-34  -1.39354724503564E-17  -1.60857995024873E-17   5.32073619640588E-02
      5.32073617514723E-02   0.00000000000000E+00   0.00000000000000E+00   1.20551785629462E-09  -2.38758405763690E-35
      1.20551785629462E-09   6.09664890227880E-18
      1.33738051079206E-01
      0.00000000000000E+00   2.14397065547211E-10   0.00000000000000E+00   0.00000000000000E+00  -1.21809815564005E-09
     -1.63776267229432E-34  -1.21809815564005E-09   6.64351120682327E-18   0.00000000000000E+00   0.00000000000000E+00
      0.00000000000000E+00   0.00000000000000E+00   0.00000000000000E+00   0.00000000000000E+00   0.00000000000000E+00
      3.29191862764755E-18   0.00000000000000E+00   0.00000000000000E+00   0.00000000000000E+00   0.00000000000000E+00
     -1.10314515805512E-17   1.85819854050101E-34  -1.10314515805512E-17  -1.60864244162633E-17   5.75073619640588E-02
      5.75073617493292E-02   0.00000000000000E+00   0.00000000000000E+00   1.21809816667150E-09  -2.20435868206696E-35
      1.21809816667150E-09   6.15099458179255E-18
      1.43738051079207E-01
      0.00000000000000E+00   2.16547313722606E-10   0.00000000000000E+00   0.00000000000000E+00  -1.23069197404859E-09
     -1.44698071733052E-34  -1.23069197404859E-09   6.64077757699888E-18   0.00000000000000E+00   0.00000000000000E+00
      0.00000000000000E+00   0.00000000000000E+00   0.00000000000000E+00   0.00000000000000E+00   0.00000000000000E+00
      3.24095015072538E-18   0.00000000000000E+00   0.00000000000000E+00   0.00000000000000E+00   0.00000000000000E+00
     -8.36942126308607E-18   1.62906447852017E-34  -8.36942126308607E-18  -1.60871109178239E-17   6.18073619640588E-02
      6.18073617471884E-02   0.00000000000000E+00   0.00000000000000E+00   1.23069198241801E-09  -1.82083761189653E-35
      1.23069198241801E-09   6.20538319009965E-18
      1.53738051079207E-01
      0.00000000000000E+00   2.18715609615080E-10   0.00000000000000E+00   0.00000000000000E+00  -1.24339755800041E-09
     -1.24975871901927E-34  -1.24339755800041E-09   6.63804430361210E-18   0.00000000000000E+00   0.00000000000000E+00
      0.00000000000000E+00   0.00000000000000E+00   0.00000000000000E+00   0.00000000000000E+00   0.00000000000000E+00
      3.18999876504670E-18   0.00000000000000E+00   0.00000000000000E+00   0.00000000000000E+00   0.00000000000000E+00
     -1.29851304802324E-17   1.41033501873202E-34  -1.29851304802324E-17  -1.60878560682521E-17   6.61073619640588E-02
      6.61073617450314E-02   0.00000000000000E+00   0.00000000000000E+00   1.24339757098554E-09  -1.60576299712748E-35
      1.24339757098554E-09   6.25981299959330E-18
      1.63738051079207E-01
      0.00000000000000E+00   2.20906315623434E-10   0.00000000000000E+00   0.00000000000000E+00  -1.25623773616924E-09
     -1.46640368968007E-34  -1.25623773616924E-09   6.63531136379716E-18   0.00000000000000E+00   0.00000000000000E+00
      0.00000000000000E+00   0.00000000000000E+00   0.00000000000000E+00   0.00000000000000E+00   0.00000000000000E+00
      3.13906338468249E-18   0.00000000000000E+00   0.00000000000000E+00   0.00000000000000E+00   0.00000000000000E+00
     -9.00667456847686E-18   1.58722429058348E-34  -9.00667456847686E-18  -1.60886571120712E-17   7.04073619640588E-02
      7.04073617428542E-02   0.00000000000000E+00   0.00000000000000E+00   1.25623774517591E-09  -1.20820600903411E-35
      1.25623774517591E-09   6.31428236359156E-18
      1.73738051079207E-01
      0.00000000000000E+00   2.23119957932047E-10   0.00000000000000E+00   0.00000000000000E+00  -1.26921570364861E-09
     -1.72785764119295E-34  -1.26921570364861E-09   6.63257873673932E-18   0.00000000000000E+00   0.00000000000000E+00
      0.00000000000000E+00   0.00000000000000E+00   0.00000000000000E+00   0.00000000000000E+00   0.00000000000000E+00
      3.08814301598608E-18   0.00000000000000E+00   0.00000000000000E+00   0.00000000000000E+00   0.00000000000000E+00
     -8.68317008737682E-18   1.82842910005897E-34  -8.68317008737682E-18  -1.60895114657659E-17   7.47073619640588E-02
      7.47073617406557E-02   0.00000000000000E+00   0.00000000000000E+00   1.26921571233178E-09  -1.00571458866015E-35
      1.26921571233178E-09   6.36878971304052E-18
      1.83738051079207E-01
      0.00000000000000E+00   2.25355173347849E-10   0.00000000000000E+00   0.00000000000000E+00  -1.28232382308179E-09
     -1.68324476094286E-34  -1.28232382308179E-09   6.62984640377678E-18   0.00000000000000E+00   0.00000000000000E+00
      0.00000000000000E+00   0.00000000000000E+00   0.00000000000000E+00   0.00000000000000E+00   0.00000000000000E+00
      3.03723675597325E-18   0.00000000000000E+00   0.00000000000000E+00   0.00000000000000E+00   0.00000000000000E+00
     -8.48244572711533E-18   1.78989777831664E-34  -8.48244572711533E-18  -1.60904167128621E-17   7.90073619640588E-02
      7.90073617384369E-02   0.00000000000000E+00   0.00000000000000E+00   1.28232383156424E-09  -1.06653017373776E-35
      1.28232383156424E-09   6.42333355311204E-18
      1.93738051079207E-01
      0.00000000000000E+00   2.27608450958720E-10   0.00000000000000E+00   0.00000000000000E+00  -1.29554201796972E-09