DF-ISE text

Info {
  version   = 1.0
  type      = xyplot
  datasets  = [
    "time"
    "source OuterVoltage" "source InnerVoltage" "source QuasiFermiPotential" "source DisplacementCurrent" "source eCurrent"
    "source hCurrent" "source TotalCurrent" "source Charge" "gate OuterVoltage" "gate InnerVoltage"
    "gate QuasiFermiPotential" "gate DisplacementCurrent" "gate eCurrent" "gate hCurrent" "gate TotalCurrent"
    "gate Charge" "substrate OuterVoltage" "substrate InnerVoltage" "substrate QuasiFermiPotential" "substrate DisplacementCurrent"
    "substrate eCurrent" "substrate hCurrent" "substrate TotalCurrent" "substrate Charge" "drain OuterVoltage"
    "drain InnerVoltage" "drain QuasiFermiPotential" "drain DisplacementCurrent" "drain eCurrent" "drain hCurrent"
    "drain TotalCurrent" "drain Charge" ]
  functions = [
    Time
    OuterVoltage InnerVoltage QuasiFermiPotential DisplacementCurrent eCurrent
    hCurrent TotalCurrent Charge OuterVoltage InnerVoltage
    QuasiFermiPotential DisplacementCurrent eCurrent hCurrent TotalCurrent
    Charge OuterVoltage InnerVoltage QuasiFermiPotential DisplacementCurrent
    eCurrent hCurrent TotalCurrent Charge OuterVoltage
    InnerVoltage QuasiFermiPotential DisplacementCurrent eCurrent hCurrent
    TotalCurrent Charge ]
}

Data {
      0.00000000000000E+00
      0.00000000000000E+00   0.00000000000000E+00   0.00000000000000E+00   0.00000000000000E+00  -6.44301873891101E-21
     -1.43574419152174E-34  -6.44301873891116E-21   6.07606196355936E-18   0.00000000000000E+00   0.00000000000000E+00
      0.00000000000000E+00   0.00000000000000E+00   0.00000000000000E+00   0.00000000000000E+00   0.00000000000000E+00
      1.86904341513080E-18   0.00000000000000E+00   0.00000000000000E+00   0.00000000000000E+00   0.00000000000000E+00
     -1.66087344489622E-20   3.31268389771447E-34  -1.66087344489619E-20  -1.37165153443566E-17   0.00000000000000E+00
      0.00000000000000E+00   0.00000000000000E+00   0.00000000000000E+00   2.30517531878732E-20  -1.87693970619273E-34
      2.30517531878730E-20   5.77140996566650E-18
      0.00000000000000E+00
      0.00000000000000E+00   0.00000000000000E+00   0.00000000000000E+00   0.00000000000000E+00  -1.07912247760695E-18
     -1.12488917126274E-34  -1.07912247760695E-18   6.07133800518316E-18   0.00000000000000E+00   0.00000000000000E+00
      0.00000000000000E+00   0.00000000000000E+00   0.00000000000000E+00   0.00000000000000E+00   0.00000000000000E+00
      1.86193714340074E-18   0.00000000000000E+00   0.00000000000000E+00   0.00000000000000E+00   0.00000000000000E+00
      2.15849828807384E-18   3.00644350294406E-34   2.15849828807384E-18  -1.37006319449473E-17   0.00000000000000E+00
      0.00000000000000E+00   0.00000000000000E+00   0.00000000000000E+00  -1.07937581046689E-18  -1.88155433168132E-34
     -1.07937581046689E-18   5.76735679636343E-18
      1.00000000000000E-03
      0.00000000000000E+00   2.37818733487170E-12   0.00000000000000E+00   0.00000000000000E+00  -1.44327393680072E-11
     -1.38285463888580E-34  -1.44327393680072E-11   6.07128642037921E-18   0.00000000000000E+00   0.00000000000000E+00
      0.00000000000000E+00   0.00000000000000E+00   0.00000000000000E+00   0.00000000000000E+00   0.00000000000000E+00
      1.86125785602738E-18   0.00000000000000E+00   0.00000000000000E+00   0.00000000000000E+00   0.00000000000000E+00
     -1.29532308787255E-19   3.42510697371575E-34  -1.29532308787254E-19  -1.37006030214003E-17   5.00000000000000E-05
      4.99999976128052E-05   0.00000000000000E+00   0.00000000000000E+00   1.44327394975395E-11  -2.04225233482996E-34
      1.44327394975395E-11   5.76805874499373E-18
      2.09333333333333E-03
      0.00000000000000E+00   4.97003758750014E-12   0.00000000000000E+00   0.00000000000000E+00  -3.01622297612413E-11
     -1.30799979121816E-34  -3.01622297612413E-11   6.07123002149282E-18   0.00000000000000E+00   0.00000000000000E+00
      0.00000000000000E+00   0.00000000000000E+00   0.00000000000000E+00   0.00000000000000E+00   0.00000000000000E+00
      1.86051517775551E-18   0.00000000000000E+00   0.00000000000000E+00   0.00000000000000E+00   0.00000000000000E+00
     -1.94513867405860E-19   3.29381449223880E-34  -1.94513867405860E-19  -1.37005714231879E-17   1.04666666666667E-04
      1.04666661677798E-04   0.00000000000000E+00   0.00000000000000E+00   3.01622299557551E-11  -1.98581470102064E-34
      3.01622299557551E-11   5.76882622393961E-18
      3.29600000000000E-03
      0.00000000000000E+00   7.81064931085518E-12   0.00000000000000E+00   0.00000000000000E+00  -4.74013179395136E-11
     -1.36532374838545E-34  -4.74013179395136E-11   6.07116798332224E-18   0.00000000000000E+00   0.00000000000000E+00
      0.00000000000000E+00   0.00000000000000E+00   0.00000000000000E+00   0.00000000000000E+00   0.00000000000000E+00
      1.85969824281453E-18   0.00000000000000E+00   0.00000000000000E+00   0.00000000000000E+00   0.00000000000000E+00
     -1.47785799727541E-19   3.31049227960608E-34  -1.47785799727541E-19  -1.37005366951338E-17   1.64800000000000E-04
      1.64799992159777E-04   0.00000000000000E+00   0.00000000000000E+00   4.74013180872994E-11  -1.94516853122063E-34
      4.74013180872994E-11   5.76967046899698E-18
      4.61893333333333E-03
      0.00000000000000E+00   1.09223806332283E-11   0.00000000000000E+00   0.00000000000000E+00  -6.62858332141633E-11
     -1.69697081092216E-34  -6.62858332141633E-11   6.07109974206771E-18   0.00000000000000E+00   0.00000000000000E+00
      0.00000000000000E+00   0.00000000000000E+00   0.00000000000000E+00   0.00000000000000E+00   0.00000000000000E+00
      1.85879962786875E-18   0.00000000000000E+00   0.00000000000000E+00   0.00000000000000E+00   0.00000000000000E+00
     -2.04658167283398E-19   3.50149731906613E-34  -2.04658167283398E-19  -1.37004985305241E-17   2.30946666666667E-04
      2.30946655702929E-04   0.00000000000000E+00   0.00000000000000E+00   6.62858334188215E-11  -1.80452650814396E-34
      6.62858334188215E-11   5.77059916058764E-18
      6.07416000000000E-03
      0.00000000000000E+00   1.43293893198846E-11   0.00000000000000E+00   0.00000000000000E+00  -8.69622831292777E-11
     -1.19162397709087E-34  -8.69622831292777E-11   6.07102467757600E-18   0.00000000000000E+00   0.00000000000000E+00
      0.00000000000000E+00   0.00000000000000E+00   0.00000000000000E+00   0.00000000000000E+00   0.00000000000000E+00
      1.85781116773449E-18   0.00000000000000E+00   0.00000000000000E+00   0.00000000000000E+00   0.00000000000000E+00
     -3.80743581248465E-19   3.25465456662916E-34  -3.80743581248465E-19  -1.37004565932824E-17   3.03708000000000E-04
      3.03707985616369E-04   0.00000000000000E+00   0.00000000000000E+00   8.69622835100213E-11  -2.06303058953828E-34
      8.69622835100213E-11   5.77162074797194E-18
      7.67490933333333E-03
      0.00000000000000E+00   1.80576262746138E-11   0.00000000000000E+00   0.00000000000000E+00  -1.09588180123349E-10
     -1.29329332607598E-34  -1.09588180123349E-10   6.07094210771094E-18   0.00000000000000E+00   0.00000000000000E+00
      0.00000000000000E+00   0.00000000000000E+00   0.00000000000000E+00   0.00000000000000E+00   0.00000000000000E+00
      1.85672388129571E-18   0.00000000000000E+00   0.00000000000000E+00   0.00000000000000E+00   0.00000000000000E+00
     -3.60050861344955E-19   3.38390407321737E-34  -3.60050861344954E-19  -1.37004105153052E-17   3.83745466666667E-04
      3.83745448540702E-04   0.00000000000000E+00   0.00000000000000E+00   1.09588180483400E-10  -2.09061074714139E-34
      1.09588180483400E-10   5.77274452629850E-18
      9.43573360000000E-03
      0.00000000000000E+00   2.21349169869507E-11   0.00000000000000E+00   0.00000000000000E+00  -1.34332333128362E-10
     -1.17020938685879E-34  -1.34332333128362E-10   6.07085128216186E-18   0.00000000000000E+00   0.00000000000000E+00
      0.00000000000000E+00   0.00000000000000E+00   0.00000000000000E+00   0.00000000000000E+00   0.00000000000000E+00
      1.85552789003255E-18   0.00000000000000E+00   0.00000000000000E+00   0.00000000000000E+00   0.00000000000000E+00
     -1.81669934383615E-19   3.12767098306023E-34  -1.81669934383615E-19  -1.37003598935876E-17   4.71786680000000E-04
      4.71786657781332E-04   0.00000000000000E+00   0.00000000000000E+00   1.34332333310032E-10  -1.95746159620144E-34
      1.34332333310032E-10   5.77398072139316E-18
      1.13726402933333E-02
      0.00000000000000E+00   2.65909749623016E-11   0.00000000000000E+00   0.00000000000000E+00  -1.61375042034086E-10
     -1.50128728270950E-34  -1.61375042034086E-10   6.07075137563429E-18   0.00000000000000E+00   0.00000000000000E+00
      0.00000000000000E+00   0.00000000000000E+00   0.00000000000000E+00   0.00000000000000E+00   0.00000000000000E+00
      1.85421232842734E-18   0.00000000000000E+00   0.00000000000000E+00   0.00000000000000E+00   0.00000000000000E+00
      3.08145358861804E-19   3.26019494888258E-34   3.08145358861805E-19  -1.37003042871302E-17   5.68632014666667E-04
      5.68631987975108E-04   0.00000000000000E+00   0.00000000000000E+00   1.61375041725941E-10  -1.75890766617308E-34
      1.61375041725941E-10   5.77534058306852E-18
      1.35032376560000E-02
      0.00000000000000E+00   3.14574112530018E-11   0.00000000000000E+00   0.00000000000000E+00  -1.90908148405412E-10
     -1.50959080170217E-34  -1.90908148405412E-10   6.07064148036143E-18   0.00000000000000E+00   0.00000000000000E+00
      0.00000000000000E+00   0.00000000000000E+00   0.00000000000000E+00   0.00000000000000E+00   0.00000000000000E+00
      1.85276524544043E-18   0.00000000000000E+00   0.00000000000000E+00   0.00000000000000E+00   0.00000000000000E+00
      5.47215082596507E-19   3.35830892871353E-34   5.47215082596507E-19  -1.37002432136160E-17   6.75161882800000E-04
      6.75161851223629E-04   0.00000000000000E+00   0.00000000000000E+00   1.90908147858197E-10  -1.84871812701136E-34
      1.90908147858197E-10   5.77683648781409E-18
      1.58468947549333E-02
      0.00000000000000E+00   3.67677244940281E-11   0.00000000000000E+00   0.00000000000000E+00  -2.23134886945691E-10
     -1.26185882028781E-34  -2.23134886945691E-10   6.07052059786868E-18   0.00000000000000E+00   0.00000000000000E+00
      0.00000000000000E+00   0.00000000000000E+00   0.00000000000000E+00   0.00000000000000E+00   0.00000000000000E+00
      1.85117349617023E-18   0.00000000000000E+00   0.00000000000000E+00   0.00000000000000E+00   0.00000000000000E+00
      7.13877551642931E-19   3.04944644175342E-34   7.13877551642931E-19  -1.37001761458547E-17   7.92344737746667E-04
      7.92344700839949E-04   0.00000000000000E+00   0.00000000000000E+00   2.23134886231813E-10  -1.78758762146561E-34
      2.23134886231813E-10   5.77848205181575E-18
      1.84249175637600E-02
      0.00000000000000E+00   4.25572246545379E-11   0.00000000000000E+00   0.00000000000000E+00  -2.58269480678206E-10
     -1.29070722324834E-34  -2.58269480678206E-10   6.07038762991734E-18   0.00000000000000E+00   0.00000000000000E+00
      0.00000000000000E+00   0.00000000000000E+00   0.00000000000000E+00   0.00000000000000E+00   0.00000000000000E+00
      1.84942262272388E-18   0.00000000000000E+00   0.00000000000000E+00   0.00000000000000E+00   0.00000000000000E+00
      5.83493364609276E-19   3.15007423440762E-34   5.83493364609276E-19  -1.37001025079916E-17   9.21245878188001E-04
      9.21245835469948E-04   0.00000000000000E+00   0.00000000000000E+00   2.58269480094713E-10  -1.85936701115927E-34
      2.58269480094713E-10   5.78029225535042E-18
      2.12607426534693E-02
      0.00000000000000E+00   4.88629151993383E-11   0.00000000000000E+00   0.00000000000000E+00  -2.96536442930160E-10
     -1.68989342253742E-34  -2.96536442930160E-10   6.07024136854520E-18   0.00000000000000E+00   0.00000000000000E+00
      0.00000000000000E+00   0.00000000000000E+00   0.00000000000000E+00   0.00000000000000E+00   0.00000000000000E+00
      1.84749672322651E-18   0.00000000000000E+00   0.00000000000000E+00   0.00000000000000E+00   0.00000000000000E+00
      2.15438425314800E-17   3.70281277751728E-34   2.15438425314800E-17  -1.37000216714793E-17   1.06303713267347E-03
      1.06303708362595E-03   0.00000000000000E+00   0.00000000000000E+00   2.96536421386318E-10  -2.01291935497986E-34
      2.96536421386318E-10   5.78228357970765E-18
      2.43801502521496E-02
      0.00000000000000E+00   5.57233128652508E-11   0.00000000000000E+00   0.00000000000000E+00  -3.38169397291967E-10
     -1.28426291616143E-34  -3.38169397291967E-10   6.07008048511468E-18   0.00000000000000E+00   0.00000000000000E+00
      0.00000000000000E+00   0.00000000000000E+00   0.00000000000000E+00   0.00000000000000E+00   0.00000000000000E+00
      1.84537830778710E-18   0.00000000000000E+00   0.00000000000000E+00   0.00000000000000E+00   0.00000000000000E+00
      1.25801064543074E-18   3.01902368977499E-34   1.25801064543074E-18  -1.36999329508068E-17   1.21900751260748E-03
      1.21900745667374E-03   0.00000000000000E+00   0.00000000000000E+00   3.38169396033956E-10  -1.73476077361356E-34
      3.38169396033956E-10   5.78447415790500E-18
      2.78114986106979E-02
      0.00000000000000E+00   6.31781950880843E-11   0.00000000000000E+00   0.00000000000000E+00  -3.83409679817532E-10
     -1.53110633447162E-34  -3.83409679817532E-10   6.06990351827038E-18   0.00000000000000E+00   0.00000000000000E+00
      0.00000000000000E+00   0.00000000000000E+00   0.00000000000000E+00   0.00000000000000E+00   0.00000000000000E+00
      1.84304814014681E-18   0.00000000000000E+00   0.00000000000000E+00   0.00000000000000E+00   0.00000000000000E+00
      1.92888816670338E-18   3.50737799274590E-34   1.92888816670338E-18  -1.36998355990242E-17   1.39057493053490E-03
      1.39057486711821E-03   0.00000000000000E+00   0.00000000000000E+00   3.83409677888644E-10  -1.97627165827429E-34
      3.83409677888644E-10   5.78688394060697E-18
      3.15859818051010E-02
      0.00000000000000E+00   7.12682356562948E-11   0.00000000000000E+00   0.00000000000000E+00  -4.32503995888459E-10
     -1.36274429625757E-34  -4.32503995888459E-10   6.06970886069697E-18   0.00000000000000E+00   0.00000000000000E+00
      0.00000000000000E+00   0.00000000000000E+00   0.00000000000000E+00   0.00000000000000E+00   0.00000000000000E+00
      1.84048506357452E-18   0.00000000000000E+00   0.00000000000000E+00   0.00000000000000E+00   0.00000000000000E+00
      2.73418972884827E-18   3.28781133731080E-34   2.73418972884827E-18  -1.36997288030559E-17   1.57929909025505E-03
      1.57929901871791E-03   0.00000000000000E+00   0.00000000000000E+00   4.32503993154270E-10  -1.92506704105323E-34
      4.32503993154270E-10   5.78953487878439E-18
      3.57379133189445E-02
      0.00000000000000E+00   8.00345502528292E-11   0.00000000000000E+00   0.00000000000000E+00  -4.85701700739489E-10
     -1.72043740431243E-34  -4.85701700739489E-10   6.06949474455916E-18   0.00000000000000E+00   0.00000000000000E+00
      0.00000000000000E+00   0.00000000000000E+00   0.00000000000000E+00   0.00000000000000E+00   0.00000000000000E+00
      1.83766580946027E-18   0.00000000000000E+00   0.00000000000000E+00   0.00000000000000E+00   0.00000000000000E+00
      3.95932393636040E-18   3.71311380233777E-34   3.95932393636040E-18  -1.36996116788422E-17   1.78689566594722E-03
      1.78689558561083E-03   0.00000000000000E+00   0.00000000000000E+00   4.85701696780165E-10  -1.99267639802535E-34
      4.85701696780165E-10   5.79245112482284E-18
      4.03050379841723E-02
      0.00000000000000E+00   8.95180899332747E-11   0.00000000000000E+00   0.00000000000000E+00  -5.43251167642966E-10
     -9.74958444569247E-35  -5.43251167642966E-10   6.06925922549266E-18   0.00000000000000E+00   0.00000000000000E+00
      0.00000000000000E+00   0.00000000000000E+00   0.00000000000000E+00   0.00000000000000E+00   0.00000000000000E+00
      1.83456478689691E-18   0.00000000000000E+00   0.00000000000000E+00   0.00000000000000E+00   0.00000000000000E+00
     -4.04819750646285E-18   2.80768018449086E-34  -4.04819750646285E-18  -1.36994832663521E-17   2.01525189920861E-03
      2.01525180935309E-03   0.00000000000000E+00   0.00000000000000E+00   5.43251171691163E-10  -1.83272173992161E-34
      5.43251171691163E-10   5.79565925396251E-18
      4.53288751159228E-02
      0.00000000000000E+00   9.97589059347322E-11   0.00000000000000E+00   0.00000000000000E+00  -6.05395279598933E-10
     -1.32578577835177E-34  -6.05395279598933E-10   6.06900016500262E-18   0.00000000000000E+00   0.00000000000000E+00
      0.00000000000000E+00   0.00000000000000E+00   0.00000000000000E+00   0.00000000000000E+00   0.00000000000000E+00
      1.83115385137005E-18   0.00000000000000E+00   0.00000000000000E+00   0.00000000000000E+00   0.00000000000000E+00
      1.72059760593338E-17   3.17670764459304E-34   1.72059760593338E-17  -1.36993425245156E-17   2.26644375579614E-03
      2.26644365566140E-03   0.00000000000000E+00   0.00000000000000E+00   6.05395262392957E-10  -1.85092186624127E-34
      6.05395262392957E-10   5.79918850814293E-18
      5.08550959608485E-02
      0.00000000000000E+00   1.10795253323168E-10   0.00000000000000E+00   0.00000000000000E+00  -6.72365869435456E-10
     -1.46542944289983E-34  -6.72365869435456E-10   6.06871521111139E-18   0.00000000000000E+00   0.00000000000000E+00
      0.00000000000000E+00   0.00000000000000E+00   0.00000000000000E+00   0.00000000000000E+00   0.00000000000000E+00
      1.82740205048751E-18   0.00000000000000E+00   0.00000000000000E+00   0.00000000000000E+00   0.00000000000000E+00
      1.28291402339842E-17   3.40856429141240E-34   1.28291402339842E-17  -1.36991883261405E-17   2.54275479804242E-03
      2.54275468683000E-03   0.00000000000000E+00   0.00000000000000E+00   6.72365856606316E-10  -1.94313484851257E-34
      6.72365856606316E-10   5.80307106454156E-18
      5.69339388902666E-02
      0.00000000000000E+00   1.22662451165568E-10   0.00000000000000E+00   0.00000000000000E+00  -7.44377088662452E-10
     -1.48232612768986E-34  -7.44377088662452E-10   6.06840177708446E-18   0.00000000000000E+00   0.00000000000000E+00
      0.00000000000000E+00   0.00000000000000E+00   0.00000000000000E+00   0.00000000000000E+00   0.00000000000000E+00
      1.82327534451686E-18   0.00000000000000E+00   0.00000000000000E+00   0.00000000000000E+00   0.00000000000000E+00
      4.31434077020408E-17   3.30364842709012E-34   4.31434077020408E-17  -1.36990194529548E-17   2.84669694451333E-03
      2.84669682138933E-03   0.00000000000000E+00   0.00000000000000E+00   7.44377045519044E-10  -1.82132229940026E-34
      7.44377045519044E-10   5.80734233135345E-18
      6.36206661126266E-02
      0.00000000000000E+00   1.35391559879073E-10   0.00000000000000E+00   0.00000000000000E+00  -8.21617106006733E-10
     -1.43906708883195E-34  -8.21617106006733E-10   6.06805701804350E-18   0.00000000000000E+00   0.00000000000000E+00
      0.00000000000000E+00   0.00000000000000E+00   0.00000000000000E+00   0.00000000000000E+00   0.00000000000000E+00
      1.81873629925294E-18   0.00000000000000E+00   0.00000000000000E+00   0.00000000000000E+00   0.00000000000000E+00
      2.42255949476201E-17   3.34375046167730E-34   2.42255949476201E-17  -1.36988345909043E-17   3.18103330563133E-03
      3.18103316973067E-03   0.00000000000000E+00   0.00000000000000E+00   8.21617081781138E-10  -1.90468337284536E-34
      8.21617081781138E-10   5.81204127360784E-18
      7.09760660572226E-02
      0.00000000000000E+00   1.49007887021083E-10   0.00000000000000E+00   0.00000000000000E+00  -9.04239155404602E-10
     -1.31365406614988E-34  -9.04239155404602E-10   6.06767780525487E-18   0.00000000000000E+00   0.00000000000000E+00
      0.00000000000000E+00   0.00000000000000E+00   0.00000000000000E+00   0.00000000000000E+00   0.00000000000000E+00
      1.81374374841451E-18   0.00000000000000E+00   0.00000000000000E+00   0.00000000000000E+00   0.00000000000000E+00
      4.09008924424261E-17   2.95152838963022E-34   4.09008924424261E-17  -1.36986323257413E-17   3.54880330286113E-03
      3.54880315329338E-03   0.00000000000000E+00   0.00000000000000E+00   9.04239114503709E-10  -1.63787432348034E-34
      9.04239114503709E-10   5.81721077207191E-18
      7.90670059962782E-02
      0.00000000000000E+00   1.63529232708191E-10   0.00000000000000E+00   0.00000000000000E+00  -9.92351039915428E-10
     -1.15037000187389E-34  -9.92351039915428E-10   6.06726069786658E-18   0.00000000000000E+00   0.00000000000000E+00
      0.00000000000000E+00   0.00000000000000E+00   0.00000000000000E+00   0.00000000000000E+00   0.00000000000000E+00
      1.80825242257377E-18   0.00000000000000E+00   0.00000000000000E+00   0.00000000000000E+00   0.00000000000000E+00
      5.93285375464782E-17   2.90242934239488E-34   5.93285375464782E-17  -1.36984111391318E-17   3.95335029981391E-03
      3.95335013567075E-03   0.00000000000000E+00   0.00000000000000E+00   9.92350980586889E-10  -1.75205934052098E-34
      9.92350980586889E-10   5.82289801869139E-18
      8.79670399292394E-02
      0.00000000000000E+00   1.78963866865815E-10   0.00000000000000E+00   0.00000000000000E+00  -1.08600254848481E-09
     -1.27992757198062E-34  -1.08600254848481E-09   6.06680191184657E-18   0.00000000000000E+00   0.00000000000000E+00
      0.00000000000000E+00   0.00000000000000E+00   0.00000000000000E+00   0.00000000000000E+00   0.00000000000000E+00
      1.80221254162327E-18   0.00000000000000E+00   0.00000000000000E+00   0.00000000000000E+00   0.00000000000000E+00
      8.64756822641690E-17   3.06988996422786E-34   8.64756822641690E-17  -1.36981694058547E-17   4.39835199646197E-03
      4.39835181682681E-03   0.00000000000000E+00   0.00000000000000E+00   1.08600246200912E-09  -1.78996239224723E-34
      1.08600246200912E-09   5.82915495238491E-18
      9.77570772554967E-02
      0.00000000000000E+00   1.95308308491768E-10   0.00000000000000E+00   0.00000000000000E+00  -1.18517218706183E-09
     -1.62893723479550E-34  -1.18517218706183E-09   6.06629728584015E-18   0.00000000000000E+00   0.00000000000000E+00
      0.00000000000000E+00   0.00000000000000E+00   0.00000000000000E+00   0.00000000000000E+00   0.00000000000000E+00
      1.79556936682806E-18   0.00000000000000E+00   0.00000000000000E+00   0.00000000000000E+00   0.00000000000000E+00
      1.08881610334822E-16   3.27701098848262E-34   1.08881610334822E-16  -1.36979053919650E-17   4.88785386277484E-03
      4.88785366673462E-03   0.00000000000000E+00   0.00000000000000E+00   1.18517207818022E-09  -1.64807375368712E-34
      1.18517207818022E-09   5.83603873929670E-18
      1.07757077255497E-01
      0.00000000000000E+00   2.11339218178688E-10   0.00000000000000E+00   0.00000000000000E+00  -1.28243739852505E-09
     -1.24447163169612E-34  -1.28243739852505E-09   6.06578187882700E-18   0.00000000000000E+00   0.00000000000000E+00
      0.00000000000000E+00   0.00000000000000E+00   0.00000000000000E+00   0.00000000000000E+00   0.00000000000000E+00
      1.78878446442123E-18   0.00000000000000E+00   0.00000000000000E+00   0.00000000000000E+00   0.00000000000000E+00
      1.46005808177374E-16   2.82013158771818E-34   1.46005808177374E-16  -1.36976377520830E-17   5.38785386277483E-03
      5.38785365064438E-03   0.00000000000000E+00   0.00000000000000E+00   1.28243725251925E-09  -1.57565995602206E-34
      1.28243725251925E-09   5.84307140883472E-18
      1.17757077255497E-01
      0.00000000000000E+00   2.26721281188548E-10   0.00000000000000E+00   0.00000000000000E+00  -1.37576405572095E-09
     -1.24018290876462E-34  -1.37576405572095E-09   6.06526651344858E-18   0.00000000000000E+00   0.00000000000000E+00
      0.00000000000000E+00   0.00000000000000E+00   0.00000000000000E+00   0.00000000000000E+00   0.00000000000000E+00
      1.78200031018253E-18   0.00000000000000E+00   0.00000000000000E+00   0.00000000000000E+00   0.00000000000000E+00
      1.47412784713891E-16   2.85509154011351E-34   1.47412784713891E-16  -1.36973721586702E-17   5.88785386277483E-03
      5.88785363520552E-03   0.00000000000000E+00   0.00000000000000E+00   1.37576390830816E-09  -1.61490863134888E-34
      1.37576390830816E-09   5.85010533503907E-18
      1.27757077255497E-01
      0.00000000000000E+00   2.41476817958638E-10   0.00000000000000E+00   0.00000000000000E+00  -1.46528794135195E-09
     -1.55690187433726E-34  -1.46528794135195E-09   6.06475118940334E-18   0.00000000000000E+00   0.00000000000000E+00
      0.00000000000000E+00   0.00000000000000E+00   0.00000000000000E+00   0.00000000000000E+00   0.00000000000000E+00
      1.77521689859929E-18   0.00000000000000E+00   0.00000000000000E+00   0.00000000000000E+00   0.00000000000000E+00
      1.88973034590383E-16   3.12170980200606E-34   1.88973034590383E-16  -1.36971086002496E-17   6.38785386277483E-03
      6.38785362039562E-03   0.00000000000000E+00   0.00000000000000E+00   1.46528775237891E-09  -1.56480792766879E-34
      1.46528775237891E-09   5.85714051224698E-18
      1.37757077255497E-01
      0.00000000000000E+00   2.55627749488289E-10   0.00000000000000E+00   0.00000000000000E+00  -1.55114233527840E-09
     -1.50102716442788E-34  -1.55114233527840E-09   6.06423590639098E-18   0.00000000000000E+00   0.00000000000000E+00
      0.00000000000000E+00   0.00000000000000E+00   0.00000000000000E+00   0.00000000000000E+00   0.00000000000000E+00
      1.76843422425687E-18   0.00000000000000E+00   0.00000000000000E+00   0.00000000000000E+00   0.00000000000000E+00
      1.97086692731268E-16   3.13033225903814E-34   1.97086692731268E-16  -1.36968470655002E-17   6.88785386277483E-03
      6.88785360619267E-03   0.00000000000000E+00   0.00000000000000E+00   1.55114213819170E-09  -1.62930509461026E-34
      1.55114213819170E-09   5.86417693485238E-18
      1.47757077255497E-01
      0.00000000000000E+00   2.69195591273652E-10   0.00000000000000E+00   0.00000000000000E+00  -1.63345808656091E-09
     -1.32054097686914E-34  -1.63345808656091E-09   6.06372066411178E-18   0.00000000000000E+00   0.00000000000000E+00
      0.00000000000000E+00   0.00000000000000E+00   0.00000000000000E+00   0.00000000000000E+00   0.00000000000000E+00
      1.76165228180561E-18   0.00000000000000E+00   0.00000000000000E+00   0.00000000000000E+00   0.00000000000000E+00
      1.64699529566292E-16   2.80648439743045E-34   1.64699529566292E-16  -1.36965875432085E-17   7.38785386277483E-03
      7.38785359257505E-03   0.00000000000000E+00   0.00000000000000E+00   1.63345792186139E-09  -1.48594342056131E-34
      1.63345792186139E-09   5.87121459729116E-18
      1.57757077255497E-01
      0.00000000000000E+00   2.82201391789052E-10   0.00000000000000E+00   0.00000000000000E+00  -1.71236333407661E-09
     -1.45765752440263E-34  -1.71236333407661E-09   6.06320546226649E-18   0.00000000000000E+00   0.00000000000000E+00
      0.00000000000000E+00   0.00000000000000E+00   0.00000000000000E+00   0.00000000000000E+00   0.00000000000000E+00
      1.75487106593995E-18   0.00000000000000E+00   0.00000000000000E+00   0.00000000000000E+00   0.00000000000000E+00
      9.56613648419572E-17   2.97186070465032E-34   9.56613648419572E-17  -1.36963300222424E-17   7.88785386277484E-03
      7.88785357952166E-03   0.00000000000000E+00   0.00000000000000E+00   1.71236323841525E-09  -1.51420318024769E-34
      1.71236323841525E-09   5.87825349403597E-18
      1.67757077255497E-01
      0.00000000000000E+00   2.94665769311534E-10   0.00000000000000E+00   0.00000000000000E+00  -1.78798346180038E-09
     -1.37935386715516E-34  -1.78798346180038E-09   6.06269030054768E-18   0.00000000000000E+00   0.00000000000000E+00
      0.00000000000000E+00   0.00000000000000E+00   0.00000000000000E+00   0.00000000000000E+00   0.00000000000000E+00
      1.74809057130818E-18   0.00000000000000E+00   0.00000000000000E+00   0.00000000000000E+00   0.00000000000000E+00
      1.13078820045485E-16   2.86484275657310E-34   1.13078820045485E-16  -1.36960744913938E-17   8.38785386277484E-03
      8.38785356701176E-03   0.00000000000000E+00   0.00000000000000E+00   1.78798334872156E-09  -1.48548888941794E-34
      1.78798334872156E-09   5.88529361953795E-18
      1.77757077255497E-01
      0.00000000000000E+00   3.06608762889774E-10   0.00000000000000E+00   0.00000000000000E+00  -1.86044035957002E-09
     -1.39720603081824E-34  -1.86044035957002E-09   6.06217517865559E-18   0.00000000000000E+00   0.00000000000000E+00
      0.00000000000000E+00   0.00000000000000E+00   0.00000000000000E+00   0.00000000000000E+00   0.00000000000000E+00
      1.74131079272688E-18   0.00000000000000E+00   0.00000000000000E+00   0.00000000000000E+00   0.00000000000000E+00
      1.40831964689066E-16   2.80246038671019E-34   1.40831964689066E-16  -1.36958209397309E-17   8.88785386277484E-03
      8.88785355502528E-03   0.00000000000000E+00   0.00000000000000E+00   1.86044021873806E-09  -1.40525435589195E-34
      1.86044021873806E-09   5.89233496834836E-18
      1.87757077255497E-01
      0.00000000000000E+00   3.18049925921739E-10   0.00000000000000E+00   0.00000000000000E+00  -1.92985339493389E-09
     -1.56643001144533E-34  -1.92985339493389E-09   6.06166009628490E-18   0.00000000000000E+00   0.00000000000000E+00
      0.00000000000000E+00   0.00000000000000E+00   0.00000000000000E+00   0.00000000000000E+00   0.00000000000000E+00
      1.73453172484475E-18   0.00000000000000E+00   0.00000000000000E+00   0.00000000000000E+00   0.00000000000000E+00
      1.69023964612824E-16   3.00417890248425E-34   1.69023964612824E-16  -1.36955693561025E-17   9.38785386277484E-03
      9.38785354354243E-03   0.00000000000000E+00   0.00000000000000E+00   1.92985322590993E-09  -1.43774889103892E-34
      1.92985322590993E-09   5.89937753497280E-18
      1.97757077255497E-01
      0.00000000000000E+00   3.29008398937311E-10   0.00000000000000E+00   0.00000000000000E+00  -1.99633796665759E-09