DF-ISE text

Info {
  version   = 1.0
  type      = xyplot
  datasets  = [
    "time"
    "source OuterVoltage" "source InnerVoltage" "source QuasiFermiPotential" "source DisplacementCurrent" "source eCurrent"
    "source hCurrent" "source TotalCurrent" "source Charge" "gate OuterVoltage" "gate InnerVoltage"
    "gate QuasiFermiPotential" "gate DisplacementCurrent" "gate eCurrent" "gate hCurrent" "gate TotalCurrent"
    "gate Charge" "substrate OuterVoltage" "substrate InnerVoltage" "substrate QuasiFermiPotential" "substrate DisplacementCurrent"
    "substrate eCurrent" "substrate hCurrent" "substrate TotalCurrent" "substrate Charge" "drain OuterVoltage"
    "drain InnerVoltage" "drain QuasiFermiPotential" "drain DisplacementCurrent" "drain eCurrent" "drain hCurrent"
    "drain TotalCurrent" "drain Charge" ]
  functions = [
    Time
    OuterVoltage InnerVoltage QuasiFermiPotential DisplacementCurrent eCurrent
    hCurrent TotalCurrent Charge OuterVoltage InnerVoltage
    QuasiFermiPotential DisplacementCurrent eCurrent hCurrent TotalCurrent
    Charge OuterVoltage InnerVoltage QuasiFermiPotential DisplacementCurrent
    eCurrent hCurrent TotalCurrent Charge OuterVoltage
    InnerVoltage QuasiFermiPotential DisplacementCurrent eCurrent hCurrent
    TotalCurrent Charge ]
}

Data {
      0.00000000000000E+00
      0.00000000000000E+00   0.00000000000000E+00   0.00000000000000E+00   0.00000000000000E+00   6.14791347280616E-24
      2.95520326930324E-34   6.14791347310168E-24   6.02351087630531E-18   0.00000000000000E+00   0.00000000000000E+00
      0.00000000000000E+00   0.00000000000000E+00   0.00000000000000E+00   0.00000000000000E+00   0.00000000000000E+00
      2.17020407675611E-18   0.00000000000000E+00   0.00000000000000E+00   0.00000000000000E+00   0.00000000000000E+00
      4.62035613408837E-20  -5.18635453917590E-34   4.62035613408832E-20  -1.41217514680493E-17   0.00000000000000E+00
      0.00000000000000E+00   0.00000000000000E+00   0.00000000000000E+00  -4.62097092543565E-20   2.23115126987266E-34
     -4.62097092543563E-20   5.92803651498786E-18
      0.00000000000000E+00
      0.00000000000000E+00   3.03260924741834E-18   0.00000000000000E+00   0.00000000000000E+00  -7.51775798893003E-19
      3.22890010990575E-34  -7.51775798893003E-19   6.01848317278887E-18   0.00000000000000E+00   0.00000000000000E+00
      0.00000000000000E+00   0.00000000000000E+00   0.00000000000000E+00   0.00000000000000E+00   0.00000000000000E+00
      2.16290037241724E-18   0.00000000000000E+00   0.00000000000000E+00   0.00000000000000E+00   0.00000000000000E+00
      2.68699444736441E-18  -5.50896260991839E-34   2.68699444736441E-18  -1.41049900499483E-17   0.00000000000000E+00
     -1.29968967746500E-18   0.00000000000000E+00   0.00000000000000E+00  -1.93521864847140E-18   2.28006250001265E-34
     -1.93521864847140E-18   5.92360650474218E-18
      1.00000000000000E-03
      0.00000000000000E+00   1.71232512055412E-12   0.00000000000000E+00   0.00000000000000E+00  -9.81678014069961E-12
      3.35903370953542E-34  -9.81678014069961E-12   6.01843354471984E-18   0.00000000000000E+00   0.00000000000000E+00
      0.00000000000000E+00   0.00000000000000E+00   0.00000000000000E+00   0.00000000000000E+00   0.00000000000000E+00
      2.16223601023120E-18   0.00000000000000E+00   0.00000000000000E+00   0.00000000000000E+00   0.00000000000000E+00
      1.86508923248884E-19  -5.80757657144699E-34   1.86508923248884E-19  -1.41049674091329E-17   5.00000000000000E-05
      4.99999982767101E-05   0.00000000000000E+00   0.00000000000000E+00   9.81677995419069E-12   2.44854286191157E-34
      9.81677995419069E-12   5.92429785418185E-18
      2.09333333333333E-03
      0.00000000000000E+00   3.57859718371429E-12   0.00000000000000E+00   0.00000000000000E+00  -2.05161357397919E-11
      3.02524030762917E-34  -2.05161357397919E-11   6.01837928504909E-18   0.00000000000000E+00   0.00000000000000E+00
      0.00000000000000E+00   0.00000000000000E+00   0.00000000000000E+00   0.00000000000000E+00   0.00000000000000E+00
      2.16150964886097E-18   0.00000000000000E+00   0.00000000000000E+00   0.00000000000000E+00   0.00000000000000E+00
      1.95156755501211E-19  -5.30720443814837E-34   1.95156755501211E-19  -1.41049426762850E-17   1.04666666666667E-04
      1.04666663065151E-04   0.00000000000000E+00   0.00000000000000E+00   2.05161355446351E-11   2.28196413051921E-34
      2.05161355446351E-11   5.92505374237495E-18
      3.29600000000000E-03
      0.00000000000000E+00   5.62411291613279E-12   0.00000000000000E+00   0.00000000000000E+00  -3.22431233591461E-11
      3.56928560543062E-34  -3.22431233591461E-11   6.01831959983626E-18   0.00000000000000E+00   0.00000000000000E+00
      0.00000000000000E+00   0.00000000000000E+00   0.00000000000000E+00   0.00000000000000E+00   0.00000000000000E+00
      2.16071066094050E-18   0.00000000000000E+00   0.00000000000000E+00   0.00000000000000E+00   0.00000000000000E+00
      5.33917330900547E-19  -5.91764397116417E-34   5.33917330900546E-19  -1.41049154956036E-17   1.64800000000000E-04
      1.64799994339862E-04   0.00000000000000E+00   0.00000000000000E+00   3.22431228252288E-11   2.34835836573356E-34
      3.22431228252288E-11   5.92588523482682E-18
      4.61893333333333E-03
      0.00000000000000E+00   7.86506038597236E-12   0.00000000000000E+00   0.00000000000000E+00  -4.50904582826514E-11
      2.90660428354307E-34  -4.50904582826514E-11   6.01825394661731E-18   0.00000000000000E+00   0.00000000000000E+00
      0.00000000000000E+00   0.00000000000000E+00   0.00000000000000E+00   0.00000000000000E+00   0.00000000000000E+00
      2.15983178581730E-18   0.00000000000000E+00   0.00000000000000E+00   0.00000000000000E+00   0.00000000000000E+00
      2.36029548236246E-19  -5.25610580783795E-34   2.36029548236246E-19  -1.41048856276280E-17   2.30946666666667E-04
      2.30946658751244E-04   0.00000000000000E+00   0.00000000000000E+00   4.50904580466218E-11   2.34950152429488E-34
      4.50904580466218E-11   5.92679989519341E-18
      6.07416000000000E-03
      0.00000000000000E+00   1.03188718976469E-11   0.00000000000000E+00   0.00000000000000E+00  -5.91581919749928E-11
      3.20787332651723E-34  -5.91581919749928E-11   6.01818172870052E-18   0.00000000000000E+00   0.00000000000000E+00
      0.00000000000000E+00   0.00000000000000E+00   0.00000000000000E+00   0.00000000000000E+00   0.00000000000000E+00
      2.15886503719070E-18   0.00000000000000E+00   0.00000000000000E+00   0.00000000000000E+00   0.00000000000000E+00
      4.69027710921720E-19  -5.59047100552707E-34   4.69027710921720E-19  -1.41048528100625E-17   3.03708000000000E-04
      3.03707989615051E-04   0.00000000000000E+00   0.00000000000000E+00   5.91581915059651E-11   2.38259767900984E-34
      5.91581915059651E-11   5.92780604417127E-18
      7.67490933333333E-03
      0.00000000000000E+00   1.30043409638926E-11   0.00000000000000E+00   0.00000000000000E+00  -7.45539558464661E-11
      3.01871985506520E-34  -7.45539558464661E-11   6.01810228974761E-18   0.00000000000000E+00   0.00000000000000E+00
      0.00000000000000E+00   0.00000000000000E+00   0.00000000000000E+00   0.00000000000000E+00   0.00000000000000E+00
      2.15780163063329E-18   0.00000000000000E+00   0.00000000000000E+00   0.00000000000000E+00   0.00000000000000E+00
     -9.77153497401335E-20  -5.32255057422095E-34  -9.77153497401341E-20  -1.41048167557229E-17   3.83745466666667E-04
      3.83745453579071E-04   0.00000000000000E+00   0.00000000000000E+00   7.45539559441815E-11   2.30383071915575E-34
      7.45539559441815E-11   5.92891283534199E-18
      9.43573360000000E-03
      0.00000000000000E+00   1.59415971784341E-11   0.00000000000000E+00   0.00000000000000E+00  -9.13931827372821E-11
      3.10275836074700E-34  -9.13931827372821E-11   6.01801490781390E-18   0.00000000000000E+00   0.00000000000000E+00
      0.00000000000000E+00   0.00000000000000E+00   0.00000000000000E+00   0.00000000000000E+00   0.00000000000000E+00
      2.15663190388259E-18   0.00000000000000E+00   0.00000000000000E+00   0.00000000000000E+00   0.00000000000000E+00
     -4.08876724692735E-19  -5.61049872488892E-34  -4.08876724692736E-19  -1.41047771503270E-17   4.71786680000000E-04
      4.71786663956351E-04   0.00000000000000E+00   0.00000000000000E+00   9.13931831461587E-11   2.50774036414192E-34
      9.13931831461587E-11   5.93013033863046E-18
      1.13726402933333E-02
      0.00000000000000E+00   1.91521759659969E-11   0.00000000000000E+00   0.00000000000000E+00  -1.09799265930396E-10
      3.42873697597776E-34  -1.09799265930396E-10   6.01791878879335E-18   0.00000000000000E+00   0.00000000000000E+00
      0.00000000000000E+00   0.00000000000000E+00   0.00000000000000E+00   0.00000000000000E+00   0.00000000000000E+00
      2.15534522918311E-18   0.00000000000000E+00   0.00000000000000E+00   0.00000000000000E+00   0.00000000000000E+00
      4.08958207978265E-19  -5.76186039286106E-34   4.08958207978265E-19  -1.41047336501204E-17   5.68632014666667E-04
      5.68631995391912E-04   0.00000000000000E+00   0.00000000000000E+00   1.09799265521438E-10   2.33312341688330E-34
      1.09799265521438E-10   5.93146963214394E-18
      1.35032376560000E-02
      0.00000000000000E+00   2.26589973540433E-11   0.00000000000000E+00   0.00000000000000E+00  -1.29903621797552E-10
      2.76902001621883E-34  -1.29903621797552E-10   6.01781305920934E-18   0.00000000000000E+00   0.00000000000000E+00
      0.00000000000000E+00   0.00000000000000E+00   0.00000000000000E+00   0.00000000000000E+00   0.00000000000000E+00
      2.15392991688839E-18   0.00000000000000E+00   0.00000000000000E+00   0.00000000000000E+00   0.00000000000000E+00
     -8.56253598004449E-20  -4.87820321165235E-34  -8.56253598004454E-20  -1.41046858793352E-17   6.75161882800000E-04
      6.75161859996012E-04   0.00000000000000E+00   0.00000000000000E+00   1.29903621883177E-10   2.10918319543352E-34
      1.29903621883177E-10   5.93294290323748E-18
      1.58468947549333E-02
      0.00000000000000E+00   2.64863798361283E-11   0.00000000000000E+00   0.00000000000000E+00  -1.51845625526905E-10
      3.02477385589185E-34  -1.51845625526905E-10   6.01769675828579E-18   0.00000000000000E+00   0.00000000000000E+00
      0.00000000000000E+00   0.00000000000000E+00   0.00000000000000E+00   0.00000000000000E+00   0.00000000000000E+00
      2.15237310945393E-18   0.00000000000000E+00   0.00000000000000E+00   0.00000000000000E+00   0.00000000000000E+00
      8.06407445627487E-19  -5.09600477194501E-34   8.06407445627486E-19  -1.41046334274765E-17   7.92344737746667E-04
      7.92344711090838E-04   0.00000000000000E+00   0.00000000000000E+00   1.51845624720497E-10   2.07123091605316E-34
      1.51845624720497E-10   5.93456355973681E-18
      1.84249175637600E-02
      0.00000000000000E+00   3.06599866513932E-11   0.00000000000000E+00   0.00000000000000E+00  -1.75772381132032E-10
      3.09730126897844E-34  -1.75772381132032E-10   6.01756882922735E-18   0.00000000000000E+00   0.00000000000000E+00
      0.00000000000000E+00   0.00000000000000E+00   0.00000000000000E+00   0.00000000000000E+00   0.00000000000000E+00
      2.15066066486686E-18   0.00000000000000E+00   0.00000000000000E+00   0.00000000000000E+00   0.00000000000000E+00
      2.60093035886269E-19  -5.42795680147107E-34   2.60093035886269E-19  -1.41045758464392E-17   9.21245878188001E-04
      9.21245847331904E-04   0.00000000000000E+00   0.00000000000000E+00   1.75772380871939E-10   2.33065553249263E-34
      1.75772380871939E-10   5.93634635234507E-18
      2.12607426534693E-02
      0.00000000000000E+00   3.52067590671621E-11   0.00000000000000E+00   0.00000000000000E+00  -2.01838284574552E-10
      3.18482751639110E-34  -2.01838284574552E-10   6.01742810962925E-18   0.00000000000000E+00   0.00000000000000E+00
      0.00000000000000E+00   0.00000000000000E+00   0.00000000000000E+00   0.00000000000000E+00   0.00000000000000E+00
      2.14877702846288E-18   0.00000000000000E+00   0.00000000000000E+00   0.00000000000000E+00   0.00000000000000E+00
      2.05335746889657E-19  -5.30150822677625E-34   2.05335746889656E-19  -1.41045126474563E-17   1.06303713267347E-03
      1.06303709724156E-03   0.00000000000000E+00   0.00000000000000E+00   2.01838284369217E-10   2.11668071038514E-34
      2.01838284369217E-10   5.93830750936416E-18
      2.43801502521496E-02
      0.00000000000000E+00   4.01547981071815E-11   0.00000000000000E+00   0.00000000000000E+00  -2.30204328856537E-10
      3.55583201847451E-34  -2.30204328856537E-10   6.01727332093109E-18   0.00000000000000E+00   0.00000000000000E+00
      0.00000000000000E+00   0.00000000000000E+00   0.00000000000000E+00   0.00000000000000E+00   0.00000000000000E+00
      2.14670509197839E-18   0.00000000000000E+00   0.00000000000000E+00   0.00000000000000E+00   0.00000000000000E+00
      1.36237115560261E-18  -5.70896376221092E-34   1.36237115560260E-18  -1.41044432978866E-17   1.21900751260748E-03
      1.21900747219597E-03   0.00000000000000E+00   0.00000000000000E+00   2.30204327494166E-10   2.15313174373641E-34
      2.30204327494166E-10   5.94046488497710E-18
      2.78114986106979E-02
      0.00000000000000E+00   4.55331570345013E-11   0.00000000000000E+00   0.00000000000000E+00  -2.61037101490870E-10
      3.23258281856391E-34  -2.61037101490870E-10   6.01710305681820E-18   0.00000000000000E+00   0.00000000000000E+00
      0.00000000000000E+00   0.00000000000000E+00   0.00000000000000E+00   0.00000000000000E+00   0.00000000000000E+00
      2.14442603857170E-18   0.00000000000000E+00   0.00000000000000E+00   0.00000000000000E+00   0.00000000000000E+00
      6.55349418333254E-18  -5.46446906278877E-34   6.55349418333254E-18  -1.41043672178559E-17   1.39057493053490E-03
      1.39057488471071E-03   0.00000000000000E+00   0.00000000000000E+00   2.61037094937376E-10   2.23188624422486E-34
      2.61037094937376E-10   5.94283812246599E-18
      3.15859818051010E-02
      0.00000000000000E+00   5.13716541961619E-11   0.00000000000000E+00   0.00000000000000E+00  -2.94507368191167E-10
      2.75316975857202E-34  -2.94507368191167E-10   6.01691577046738E-18   0.00000000000000E+00   0.00000000000000E+00
      0.00000000000000E+00   0.00000000000000E+00   0.00000000000000E+00   0.00000000000000E+00   0.00000000000000E+00
      2.14191917242323E-18   0.00000000000000E+00   0.00000000000000E+00   0.00000000000000E+00   0.00000000000000E+00
      2.49988168265134E-18  -5.08336869003673E-34   2.49988168265134E-18  -1.41042837767706E-17   1.57929909025505E-03
      1.57929903855515E-03   0.00000000000000E+00   0.00000000000000E+00   2.94507365691285E-10   2.33019893146470E-34
      2.94507365691285E-10   5.94544883387995E-18
      3.57379133189445E-02
      0.00000000000000E+00   5.77005056442446E-11   0.00000000000000E+00   0.00000000000000E+00  -3.30788292050062E-10
      2.94777277383999E-34  -3.30788292050062E-10   6.01670976052090E-18   0.00000000000000E+00   0.00000000000000E+00
      0.00000000000000E+00   0.00000000000000E+00   0.00000000000000E+00   0.00000000000000E+00   0.00000000000000E+00
      2.13916173138652E-18   0.00000000000000E+00   0.00000000000000E+00   0.00000000000000E+00   0.00000000000000E+00
      3.99602891686218E-18  -4.91870411121685E-34   3.99602891686218E-18  -1.41041922897321E-17   1.78689566594722E-03
      1.78689560787814E-03   0.00000000000000E+00   0.00000000000000E+00   3.30788288054033E-10   1.97093133737687E-34
      3.30788288054033E-10   5.94832079782476E-18
      4.03050379841723E-02
      0.00000000000000E+00   6.45499386948081E-11   0.00000000000000E+00   0.00000000000000E+00  -3.70053011017909E-10
      3.24049343607703E-34  -3.70053011017909E-10   6.01648315566299E-18   0.00000000000000E+00   0.00000000000000E+00
      0.00000000000000E+00   0.00000000000000E+00   0.00000000000000E+00   0.00000000000000E+00   0.00000000000000E+00
      2.13612868101405E-18   0.00000000000000E+00   0.00000000000000E+00   0.00000000000000E+00   0.00000000000000E+00
      5.83416310237097E-18  -5.50606122946912E-34   5.83416310237097E-18  -1.41040920138930E-17   2.01525189920861E-03
      2.01525183424649E-03   0.00000000000000E+00   0.00000000000000E+00   3.70053005183747E-10   2.26556779339208E-34
      3.70053005183747E-10   5.95148017721601E-18
      4.53288751159228E-02
      0.00000000000000E+00   7.19496512569826E-11   0.00000000000000E+00   0.00000000000000E+00  -4.12471693449538E-10
      3.05592297529723E-34  -4.12471693449538E-10   6.01623389765967E-18   0.00000000000000E+00   0.00000000000000E+00
      0.00000000000000E+00   0.00000000000000E+00   0.00000000000000E+00   0.00000000000000E+00   0.00000000000000E+00
      2.13279248811348E-18   0.00000000000000E+00   0.00000000000000E+00   0.00000000000000E+00   0.00000000000000E+00
      7.87366313622488E-18  -5.33245511865497E-34   7.87366313622488E-18  -1.41039821448030E-17   2.26644375579614E-03
      2.26644368338720E-03   0.00000000000000E+00   0.00000000000000E+00   4.12471685575875E-10   2.27653214335774E-34
      4.12471685575875E-10   5.95495575902984E-18
      5.08550959608485E-02
      0.00000000000000E+00   7.99282070440396E-11   0.00000000000000E+00   0.00000000000000E+00  -4.58207851298018E-10
      3.31783656064911E-34  -4.58207851298018E-10   6.01595972270998E-18   0.00000000000000E+00   0.00000000000000E+00
      0.00000000000000E+00   0.00000000000000E+00   0.00000000000000E+00   0.00000000000000E+00   0.00000000000000E+00
      2.12912287181856E-18   0.00000000000000E+00   0.00000000000000E+00   0.00000000000000E+00   0.00000000000000E+00
      1.70497199721293E-17  -5.46159689361571E-34   1.70497199721293E-17  -1.41038618128249E-17   2.54275479804242E-03
      2.54275471760420E-03   0.00000000000000E+00   0.00000000000000E+00   4.58207834248298E-10   2.14376033296660E-34
      4.58207834248298E-10   5.95877921829633E-18
      5.69339388902666E-02
      0.00000000000000E+00   8.85122115701366E-11   0.00000000000000E+00   0.00000000000000E+00  -5.07413809068518E-10
      3.15629447027325E-34  -5.07413809068518E-10   6.01565814094125E-18   0.00000000000000E+00   0.00000000000000E+00
      0.00000000000000E+00   0.00000000000000E+00   0.00000000000000E+00   0.00000000000000E+00   0.00000000000000E+00
      2.12508652996187E-18   0.00000000000000E+00   0.00000000000000E+00   0.00000000000000E+00   0.00000000000000E+00
      3.14402991822149E-17  -5.27780898826882E-34   3.14402991822149E-17  -1.41037300797180E-17   2.84669694451333E-03
      2.84669685543656E-03   0.00000000000000E+00   0.00000000000000E+00   5.07413777628219E-10   2.12151451799557E-34
      5.07413777628219E-10   5.96298540881483E-18
      6.36206661126266E-02
      0.00000000000000E+00   9.77253989017036E-11   0.00000000000000E+00   0.00000000000000E+00  -5.60225475454168E-10
      3.21068481574962E-34  -5.60225475454168E-10   6.01532641386108E-18   0.00000000000000E+00   0.00000000000000E+00
      0.00000000000000E+00   0.00000000000000E+00   0.00000000000000E+00   0.00000000000000E+00   0.00000000000000E+00
      2.12064683825865E-18   0.00000000000000E+00   0.00000000000000E+00   0.00000000000000E+00   0.00000000000000E+00
      2.43654269764709E-17  -5.30202495599112E-34   2.43654269764709E-17  -1.41035859354240E-17   3.18103330563133E-03
      3.18103320728287E-03   0.00000000000000E+00   0.00000000000000E+00   5.60225451088741E-10   2.09134014024149E-34
      5.60225451088741E-10   5.96761268330430E-18
      7.09760660572226E-02
      0.00000000000000E+00   1.07587581508184E-10   0.00000000000000E+00   0.00000000000000E+00  -6.16756120058636E-10
      3.07915736504019E-34  -6.16756120058636E-10   6.01496152956889E-18   0.00000000000000E+00   0.00000000000000E+00
      0.00000000000000E+00   0.00000000000000E+00   0.00000000000000E+00   0.00000000000000E+00   0.00000000000000E+00
      2.11576351971074E-18   0.00000000000000E+00   0.00000000000000E+00   0.00000000000000E+00   0.00000000000000E+00
      3.50325171450936E-17  -5.13457235511204E-34   3.50325171450936E-17  -1.41034282953203E-17   3.54880330286113E-03
      3.54880319458794E-03   0.00000000000000E+00   0.00000000000000E+00   6.16756085026118E-10   2.05541499007185E-34
      6.16756085026118E-10   5.97270324604065E-18
      7.90670059962782E-02
      0.00000000000000E+00   1.18113314181046E-10   0.00000000000000E+00   0.00000000000000E+00  -6.77089006819852E-10
      3.10153608844893E-34  -6.77089006819852E-10   6.01456017550164E-18   0.00000000000000E+00   0.00000000000000E+00
      0.00000000000000E+00   0.00000000000000E+00   0.00000000000000E+00   0.00000000000000E+00   0.00000000000000E+00
      2.11039228124795E-18   0.00000000000000E+00   0.00000000000000E+00   0.00000000000000E+00   0.00000000000000E+00
      7.64931766771218E-17  -4.93303555298704E-34   7.64931766771218E-17  -1.41032559980423E-17   3.95335029981391E-03
      3.95335018094828E-03   0.00000000000000E+00   0.00000000000000E+00   6.77088930326674E-10   1.83149946453811E-34
      6.77088930326674E-10   5.97830354129272E-18
      8.79670399292394E-02
      0.00000000000000E+00   1.29310505531976E-10   0.00000000000000E+00   0.00000000000000E+00  -7.41269093210927E-10
      2.92995408480035E-34  -7.41269093210927E-10   6.01411870847064E-18   0.00000000000000E+00   0.00000000000000E+00
      0.00000000000000E+00   0.00000000000000E+00   0.00000000000000E+00   0.00000000000000E+00   0.00000000000000E+00
      2.10448441440089E-18   0.00000000000000E+00   0.00000000000000E+00   0.00000000000000E+00   0.00000000000000E+00
      7.43416582198414E-17  -4.82006833203219E-34   7.43416582198414E-17  -1.41030678041318E-17   4.39835199646197E-03
      4.39835186632827E-03   0.00000000000000E+00   0.00000000000000E+00   7.41269018869268E-10   1.89011424723184E-34
      7.41269018869268E-10   5.98446468126029E-18
      9.77570772554967E-02
      0.00000000000000E+00   1.41178811576441E-10   0.00000000000000E+00   0.00000000000000E+00  -8.09294148213456E-10
      2.94419438486921E-34  -8.09294148213456E-10   6.01363312171768E-18   0.00000000000000E+00   0.00000000000000E+00
      0.00000000000000E+00   0.00000000000000E+00   0.00000000000000E+00   0.00000000000000E+00   0.00000000000000E+00
      2.09798635640469E-18   0.00000000000000E+00   0.00000000000000E+00   0.00000000000000E+00   0.00000000000000E+00
     -2.87336136975726E-19  -4.76280577441904E-34  -2.87336136975726E-19  -1.41028623956613E-17   4.88785386277484E-03
      4.88785372069781E-03   0.00000000000000E+00   0.00000000000000E+00   8.09294148500792E-10   1.81861138954983E-34
      8.09294148500792E-10   5.99124291753891E-18
      1.07757077255497E-01
      0.00000000000000E+00   1.52831056342464E-10   0.00000000000000E+00   0.00000000000000E+00  -8.76079373045721E-10
      3.38875838530257E-34  -8.76079373045721E-10   6.01313714977439E-18   0.00000000000000E+00   0.00000000000000E+00
      0.00000000000000E+00   0.00000000000000E+00   0.00000000000000E+00   0.00000000000000E+00   0.00000000000000E+00
      2.09134957693033E-18   0.00000000000000E+00   0.00000000000000E+00   0.00000000000000E+00   0.00000000000000E+00
      1.24089189439915E-16  -5.39842407446181E-34   1.24089189439915E-16  -1.41026543081628E-17   5.38785386277483E-03
      5.38785370897196E-03   0.00000000000000E+00   0.00000000000000E+00   8.76079248956532E-10   2.00966568915923E-34
      8.76079248956532E-10   5.99816758145812E-18
      1.17757077255497E-01
      0.00000000000000E+00   1.64022979617902E-10   0.00000000000000E+00   0.00000000000000E+00  -9.40224709322249E-10
      3.18737708025145E-34  -9.40224709322249E-10   6.01264120689947E-18   0.00000000000000E+00   0.00000000000000E+00
      0.00000000000000E+00   0.00000000000000E+00   0.00000000000000E+00   0.00000000000000E+00   0.00000000000000E+00
      2.08471343902028E-18   0.00000000000000E+00   0.00000000000000E+00   0.00000000000000E+00   0.00000000000000E+00
      1.31520807161959E-16  -5.22749404189955E-34   1.31520807161959E-16  -1.41024479553852E-17   5.88785386277483E-03
      5.88785369770944E-03   0.00000000000000E+00   0.00000000000000E+00   9.40224577801440E-10   2.04011696164810E-34
      9.40224577801440E-10   6.00509330946537E-18
      1.27757077255497E-01
      0.00000000000000E+00   1.74769844958326E-10   0.00000000000000E+00   0.00000000000000E+00  -1.00181786517751E-09
      3.04274730145246E-34  -1.00181786517751E-09   6.01214529287390E-18   0.00000000000000E+00   0.00000000000000E+00
      0.00000000000000E+00   0.00000000000000E+00   0.00000000000000E+00   0.00000000000000E+00   0.00000000000000E+00
      2.07807793792750E-18   0.00000000000000E+00   0.00000000000000E+00   0.00000000000000E+00   0.00000000000000E+00
      1.23479196929367E-16  -5.13229740786578E-34   1.23479196929367E-16  -1.41022433274763E-17   6.38785386277483E-03
      6.38785368689488E-03   0.00000000000000E+00   0.00000000000000E+00   1.00181774169831E-09   2.08955010641332E-34
      1.00181774169831E-09   6.01202009667487E-18
      1.37757077255497E-01
      0.00000000000000E+00   1.85086655981375E-10   0.00000000000000E+00   0.00000000000000E+00  -1.06094522376963E-09
      2.62228171316485E-34  -1.06094522376963E-09   6.01164940747943E-18   0.00000000000000E+00   0.00000000000000E+00
      0.00000000000000E+00   0.00000000000000E+00   0.00000000000000E+00   0.00000000000000E+00   0.00000000000000E+00
      2.07144306896229E-18   0.00000000000000E+00   0.00000000000000E+00   0.00000000000000E+00   0.00000000000000E+00
      1.22921955809895E-16  -4.49877023773589E-34   1.22921955809895E-16  -1.41020404146818E-17   6.88785386277483E-03
      6.88785367651315E-03   0.00000000000000E+00   0.00000000000000E+00   1.06094510084767E-09   1.87648852457105E-34
      1.06094510084767E-09   6.01894793824001E-18
      1.47757077255497E-01
      0.00000000000000E+00   1.94988237380738E-10   0.00000000000000E+00   0.00000000000000E+00  -1.11769192554918E-09
      2.82581973269629E-34  -1.11769192554918E-09   6.01115355049338E-18   0.00000000000000E+00   0.00000000000000E+00
      0.00000000000000E+00   0.00000000000000E+00   0.00000000000000E+00   0.00000000000000E+00   0.00000000000000E+00
      2.06480882738691E-18   0.00000000000000E+00   0.00000000000000E+00   0.00000000000000E+00   0.00000000000000E+00
      1.20937657528552E-16  -4.60070544019996E-34   1.20937657528552E-16  -1.41018392071834E-17   7.38785386277483E-03
      7.38785366654934E-03   0.00000000000000E+00   0.00000000000000E+00   1.11769180461152E-09   1.77488570750367E-34
      1.11769180461152E-09   6.02587682930314E-18
      1.57757077255497E-01
      0.00000000000000E+00   2.04489073764641E-10   0.00000000000000E+00   0.00000000000000E+00  -1.17214126147197E-09
      2.71068498341405E-34  -1.17214126147197E-09   6.01065772169583E-18   0.00000000000000E+00   0.00000000000000E+00
      0.00000000000000E+00   0.00000000000000E+00   0.00000000000000E+00   0.00000000000000E+00   0.00000000000000E+00
      2.05817520857427E-18   0.00000000000000E+00   0.00000000000000E+00   0.00000000000000E+00   0.00000000000000E+00
      1.19580966057217E-16  -4.50087790685663E-34   1.19580966057217E-16  -1.41016396953401E-17   7.88785386277484E-03
      7.88785365698885E-03   0.00000000000000E+00   0.00000000000000E+00   1.17214114189100E-09   1.79019292344258E-34
      1.17214114189100E-09   6.03280676506999E-18
      1.67757077255497E-01
      0.00000000000000E+00   2.13603393269213E-10   0.00000000000000E+00   0.00000000000000E+00  -1.22437491896141E-09
      3.15384206364707E-34  -1.22437491896141E-09   6.01016192086472E-18   0.00000000000000E+00   0.00000000000000E+00
      0.00000000000000E+00   0.00000000000000E+00   0.00000000000000E+00   0.00000000000000E+00   0.00000000000000E+00
      2.05154220786548E-18   0.00000000000000E+00   0.00000000000000E+00   0.00000000000000E+00   0.00000000000000E+00
      1.18486415758553E-16  -4.79055507579998E-34   1.18486415758553E-16  -1.41014418694788E-17   8.38785386277484E-03
      8.38785364781739E-03   0.00000000000000E+00   0.00000000000000E+00   1.22437480047500E-09   1.63671301215292E-34
      1.22437480047500E-09   6.03973774074857E-18
      1.77757077255497E-01
      0.00000000000000E+00   2.22345058817784E-10   0.00000000000000E+00   0.00000000000000E+00  -1.27447256797686E-09
      3.05870696659376E-34  -1.27447256797686E-09   6.00966614777928E-18   0.00000000000000E+00   0.00000000000000E+00
      0.00000000000000E+00   0.00000000000000E+00   0.00000000000000E+00   0.00000000000000E+00   0.00000000000000E+00
      2.04490982066804E-18   0.00000000000000E+00   0.00000000000000E+00   0.00000000000000E+00   0.00000000000000E+00
      1.17688042943733E-16  -4.79246053115814E-34   1.17688042943733E-16  -1.41012457200338E-17   8.88785386277484E-03
      8.88785363902099E-03   0.00000000000000E+00   0.00000000000000E+00   1.27447245028882E-09   1.73375356456438E-34
      1.27447245028882E-09   6.04666975158642E-18
      1.87757077255497E-01
      0.00000000000000E+00   2.30727580684552E-10   0.00000000000000E+00   0.00000000000000E+00  -1.32251184973410E-09
      3.14427546279897E-34  -1.32251184973410E-09   6.00917040221963E-18   0.00000000000000E+00   0.00000000000000E+00
      0.00000000000000E+00   0.00000000000000E+00   0.00000000000000E+00   0.00000000000000E+00   0.00000000000000E+00
      2.03827804243876E-18   0.00000000000000E+00   0.00000000000000E+00   0.00000000000000E+00   0.00000000000000E+00
     -2.90058671168198E-17  -4.86150181427651E-34  -2.90058671168198E-17  -1.41010512375217E-17   9.38785386277484E-03
      9.38785363058603E-03   0.00000000000000E+00   0.00000000000000E+00   1.32251187873996E-09   1.71722635147754E-34
      1.32251187873996E-09   6.05360279286336E-18
      1.97757077255497E-01
      0.00000000000000E+00   2.38764129058247E-10   0.00000000000000E+00   0.00000000000000E+00  -1.36856840797428E-09